file 5239266 1409689570                                         
version 2
run Flooding-0-20140902-14:24:53-17286
attr configname Flooding
attr datetime 20140902-14:24:53
attr experiment Flooding
attr inifile omnetpp.ini
attr iterationvars ""
attr iterationvars2 $repetition=0
attr measurement ""
attr network src.modules.scenario.FranciscoScenario
attr processid 17286
attr repetition 0
attr replication #0
attr resultdir results
attr runnumber 0
attr seedset 0

vector 10  FranciscoScenario.node[0].veinsmobility  posx  ETV
vector 11  FranciscoScenario.node[0].veinsmobility  posy  ETV
vector 12  FranciscoScenario.node[0].veinsmobility  speed  ETV
vector 13  FranciscoScenario.node[0].veinsmobility  acceleration  ETV
vector 14  FranciscoScenario.node[0].veinsmobility  co2emission  ETV
vector 21  FranciscoScenario.node[1].veinsmobility  posx  ETV
vector 22  FranciscoScenario.node[1].veinsmobility  posy  ETV
vector 32  FranciscoScenario.node[2].veinsmobility  posx  ETV
vector 33  FranciscoScenario.node[2].veinsmobility  posy  ETV
vector 43  FranciscoScenario.node[3].veinsmobility  posx  ETV
vector 44  FranciscoScenario.node[3].veinsmobility  posy  ETV
vector 54  FranciscoScenario.node[4].veinsmobility  posx  ETV
vector 55  FranciscoScenario.node[4].veinsmobility  posy  ETV
vector 65  FranciscoScenario.node[5].veinsmobility  posx  ETV
vector 66  FranciscoScenario.node[5].veinsmobility  posy  ETV
vector 76  FranciscoScenario.node[6].veinsmobility  posx  ETV
vector 77  FranciscoScenario.node[6].veinsmobility  posy  ETV
vector 87  FranciscoScenario.node[7].veinsmobility  posx  ETV
vector 88  FranciscoScenario.node[7].veinsmobility  posy  ETV
vector 98  FranciscoScenario.node[8].veinsmobility  posx  ETV
vector 99  FranciscoScenario.node[8].veinsmobility  posy  ETV
vector 109  FranciscoScenario.node[9].veinsmobility  posx  ETV
vector 110  FranciscoScenario.node[9].veinsmobility  posy  ETV
vector 120  FranciscoScenario.node[10].veinsmobility  posx  ETV
vector 121  FranciscoScenario.node[10].veinsmobility  posy  ETV
vector 131  FranciscoScenario.node[11].veinsmobility  posx  ETV
vector 132  FranciscoScenario.node[11].veinsmobility  posy  ETV
vector 142  FranciscoScenario.node[12].veinsmobility  posx  ETV
vector 143  FranciscoScenario.node[12].veinsmobility  posy  ETV
vector 153  FranciscoScenario.node[13].veinsmobility  posx  ETV
vector 154  FranciscoScenario.node[13].veinsmobility  posy  ETV
vector 164  FranciscoScenario.node[14].veinsmobility  posx  ETV
vector 165  FranciscoScenario.node[14].veinsmobility  posy  ETV
vector 175  FranciscoScenario.node[15].veinsmobility  posx  ETV
vector 176  FranciscoScenario.node[15].veinsmobility  posy  ETV
vector 186  FranciscoScenario.node[16].veinsmobility  posx  ETV
vector 187  FranciscoScenario.node[16].veinsmobility  posy  ETV
vector 197  FranciscoScenario.node[17].veinsmobility  posx  ETV
vector 198  FranciscoScenario.node[17].veinsmobility  posy  ETV
vector 208  FranciscoScenario.node[18].veinsmobility  posx  ETV
vector 209  FranciscoScenario.node[18].veinsmobility  posy  ETV
vector 219  FranciscoScenario.node[19].veinsmobility  posx  ETV
vector 220  FranciscoScenario.node[19].veinsmobility  posy  ETV
vector 230  FranciscoScenario.node[20].veinsmobility  posx  ETV
vector 231  FranciscoScenario.node[20].veinsmobility  posy  ETV
vector 241  FranciscoScenario.node[21].veinsmobility  posx  ETV
vector 242  FranciscoScenario.node[21].veinsmobility  posy  ETV
vector 252  FranciscoScenario.node[22].veinsmobility  posx  ETV
vector 253  FranciscoScenario.node[22].veinsmobility  posy  ETV
vector 263  FranciscoScenario.node[23].veinsmobility  posx  ETV
vector 264  FranciscoScenario.node[23].veinsmobility  posy  ETV
vector 274  FranciscoScenario.node[24].veinsmobility  posx  ETV
vector 275  FranciscoScenario.node[24].veinsmobility  posy  ETV
vector 285  FranciscoScenario.node[25].veinsmobility  posx  ETV
vector 286  FranciscoScenario.node[25].veinsmobility  posy  ETV
vector 296  FranciscoScenario.node[26].veinsmobility  posx  ETV
vector 297  FranciscoScenario.node[26].veinsmobility  posy  ETV
vector 307  FranciscoScenario.node[27].veinsmobility  posx  ETV
vector 308  FranciscoScenario.node[27].veinsmobility  posy  ETV
vector 318  FranciscoScenario.node[28].veinsmobility  posx  ETV
vector 319  FranciscoScenario.node[28].veinsmobility  posy  ETV
vector 329  FranciscoScenario.node[29].veinsmobility  posx  ETV
vector 330  FranciscoScenario.node[29].veinsmobility  posy  ETV
vector 340  FranciscoScenario.node[30].veinsmobility  posx  ETV
vector 341  FranciscoScenario.node[30].veinsmobility  posy  ETV
vector 351  FranciscoScenario.node[31].veinsmobility  posx  ETV
vector 352  FranciscoScenario.node[31].veinsmobility  posy  ETV
vector 362  FranciscoScenario.node[32].veinsmobility  posx  ETV
vector 363  FranciscoScenario.node[32].veinsmobility  posy  ETV
vector 373  FranciscoScenario.node[33].veinsmobility  posx  ETV
vector 374  FranciscoScenario.node[33].veinsmobility  posy  ETV
vector 384  FranciscoScenario.node[34].veinsmobility  posx  ETV
vector 385  FranciscoScenario.node[34].veinsmobility  posy  ETV
vector 395  FranciscoScenario.node[35].veinsmobility  posx  ETV
vector 396  FranciscoScenario.node[35].veinsmobility  posy  ETV
vector 406  FranciscoScenario.node[36].veinsmobility  posx  ETV
vector 407  FranciscoScenario.node[36].veinsmobility  posy  ETV
vector 417  FranciscoScenario.node[37].veinsmobility  posx  ETV
vector 418  FranciscoScenario.node[37].veinsmobility  posy  ETV
vector 428  FranciscoScenario.node[38].veinsmobility  posx  ETV
vector 429  FranciscoScenario.node[38].veinsmobility  posy  ETV
vector 439  FranciscoScenario.node[39].veinsmobility  posx  ETV
vector 440  FranciscoScenario.node[39].veinsmobility  posy  ETV
vector 450  FranciscoScenario.node[40].veinsmobility  posx  ETV
vector 451  FranciscoScenario.node[40].veinsmobility  posy  ETV
vector 461  FranciscoScenario.node[41].veinsmobility  posx  ETV
vector 462  FranciscoScenario.node[41].veinsmobility  posy  ETV
vector 472  FranciscoScenario.node[42].veinsmobility  posx  ETV
vector 473  FranciscoScenario.node[42].veinsmobility  posy  ETV
vector 483  FranciscoScenario.node[43].veinsmobility  posx  ETV
vector 484  FranciscoScenario.node[43].veinsmobility  posy  ETV
vector 494  FranciscoScenario.node[44].veinsmobility  posx  ETV
vector 495  FranciscoScenario.node[44].veinsmobility  posy  ETV
vector 505  FranciscoScenario.node[45].veinsmobility  posx  ETV
vector 506  FranciscoScenario.node[45].veinsmobility  posy  ETV
vector 516  FranciscoScenario.node[46].veinsmobility  posx  ETV
vector 517  FranciscoScenario.node[46].veinsmobility  posy  ETV
vector 527  FranciscoScenario.node[47].veinsmobility  posx  ETV
vector 528  FranciscoScenario.node[47].veinsmobility  posy  ETV
vector 538  FranciscoScenario.node[48].veinsmobility  posx  ETV
vector 539  FranciscoScenario.node[48].veinsmobility  posy  ETV
vector 549  FranciscoScenario.node[49].veinsmobility  posx  ETV
vector 550  FranciscoScenario.node[49].veinsmobility  posy  ETV
vector 560  FranciscoScenario.node[50].veinsmobility  posx  ETV
vector 561  FranciscoScenario.node[50].veinsmobility  posy  ETV
vector 571  FranciscoScenario.node[51].veinsmobility  posx  ETV
vector 572  FranciscoScenario.node[51].veinsmobility  posy  ETV
vector 582  FranciscoScenario.node[52].veinsmobility  posx  ETV
vector 583  FranciscoScenario.node[52].veinsmobility  posy  ETV
vector 593  FranciscoScenario.node[53].veinsmobility  posx  ETV
vector 594  FranciscoScenario.node[53].veinsmobility  posy  ETV
vector 604  FranciscoScenario.node[54].veinsmobility  posx  ETV
vector 605  FranciscoScenario.node[54].veinsmobility  posy  ETV
vector 615  FranciscoScenario.node[55].veinsmobility  posx  ETV
vector 616  FranciscoScenario.node[55].veinsmobility  posy  ETV
vector 626  FranciscoScenario.node[56].veinsmobility  posx  ETV
vector 627  FranciscoScenario.node[56].veinsmobility  posy  ETV
vector 637  FranciscoScenario.node[57].veinsmobility  posx  ETV
vector 638  FranciscoScenario.node[57].veinsmobility  posy  ETV
vector 648  FranciscoScenario.node[58].veinsmobility  posx  ETV
vector 649  FranciscoScenario.node[58].veinsmobility  posy  ETV
vector 659  FranciscoScenario.node[59].veinsmobility  posx  ETV
vector 660  FranciscoScenario.node[59].veinsmobility  posy  ETV
vector 670  FranciscoScenario.node[60].veinsmobility  posx  ETV
vector 671  FranciscoScenario.node[60].veinsmobility  posy  ETV
vector 681  FranciscoScenario.node[61].veinsmobility  posx  ETV
vector 682  FranciscoScenario.node[61].veinsmobility  posy  ETV
vector 692  FranciscoScenario.node[62].veinsmobility  posx  ETV
vector 693  FranciscoScenario.node[62].veinsmobility  posy  ETV
vector 703  FranciscoScenario.node[63].veinsmobility  posx  ETV
vector 704  FranciscoScenario.node[63].veinsmobility  posy  ETV
vector 714  FranciscoScenario.node[64].veinsmobility  posx  ETV
vector 715  FranciscoScenario.node[64].veinsmobility  posy  ETV
vector 725  FranciscoScenario.node[65].veinsmobility  posx  ETV
vector 726  FranciscoScenario.node[65].veinsmobility  posy  ETV
vector 736  FranciscoScenario.node[66].veinsmobility  posx  ETV
vector 737  FranciscoScenario.node[66].veinsmobility  posy  ETV
vector 747  FranciscoScenario.node[67].veinsmobility  posx  ETV
vector 748  FranciscoScenario.node[67].veinsmobility  posy  ETV
vector 758  FranciscoScenario.node[68].veinsmobility  posx  ETV
vector 759  FranciscoScenario.node[68].veinsmobility  posy  ETV
vector 769  FranciscoScenario.node[69].veinsmobility  posx  ETV
vector 770  FranciscoScenario.node[69].veinsmobility  posy  ETV
vector 780  FranciscoScenario.node[70].veinsmobility  posx  ETV
vector 781  FranciscoScenario.node[70].veinsmobility  posy  ETV
vector 791  FranciscoScenario.node[71].veinsmobility  posx  ETV
vector 792  FranciscoScenario.node[71].veinsmobility  posy  ETV
vector 802  FranciscoScenario.node[72].veinsmobility  posx  ETV
vector 803  FranciscoScenario.node[72].veinsmobility  posy  ETV
vector 813  FranciscoScenario.node[73].veinsmobility  posx  ETV
vector 814  FranciscoScenario.node[73].veinsmobility  posy  ETV
vector 824  FranciscoScenario.node[74].veinsmobility  posx  ETV
vector 825  FranciscoScenario.node[74].veinsmobility  posy  ETV
vector 835  FranciscoScenario.node[75].veinsmobility  posx  ETV
vector 836  FranciscoScenario.node[75].veinsmobility  posy  ETV
vector 846  FranciscoScenario.node[76].veinsmobility  posx  ETV
vector 847  FranciscoScenario.node[76].veinsmobility  posy  ETV
vector 857  FranciscoScenario.node[77].veinsmobility  posx  ETV
vector 858  FranciscoScenario.node[77].veinsmobility  posy  ETV
vector 868  FranciscoScenario.node[78].veinsmobility  posx  ETV
vector 869  FranciscoScenario.node[78].veinsmobility  posy  ETV
vector 879  FranciscoScenario.node[79].veinsmobility  posx  ETV
vector 880  FranciscoScenario.node[79].veinsmobility  posy  ETV
vector 890  FranciscoScenario.node[80].veinsmobility  posx  ETV
vector 891  FranciscoScenario.node[80].veinsmobility  posy  ETV
vector 901  FranciscoScenario.node[81].veinsmobility  posx  ETV
vector 902  FranciscoScenario.node[81].veinsmobility  posy  ETV
vector 912  FranciscoScenario.node[82].veinsmobility  posx  ETV
vector 913  FranciscoScenario.node[82].veinsmobility  posy  ETV
vector 923  FranciscoScenario.node[83].veinsmobility  posx  ETV
vector 924  FranciscoScenario.node[83].veinsmobility  posy  ETV
vector 934  FranciscoScenario.node[84].veinsmobility  posx  ETV
vector 935  FranciscoScenario.node[84].veinsmobility  posy  ETV
vector 945  FranciscoScenario.node[85].veinsmobility  posx  ETV
vector 946  FranciscoScenario.node[85].veinsmobility  posy  ETV
vector 956  FranciscoScenario.node[86].veinsmobility  posx  ETV
vector 957  FranciscoScenario.node[86].veinsmobility  posy  ETV
vector 967  FranciscoScenario.node[87].veinsmobility  posx  ETV
vector 968  FranciscoScenario.node[87].veinsmobility  posy  ETV
vector 978  FranciscoScenario.node[88].veinsmobility  posx  ETV
vector 979  FranciscoScenario.node[88].veinsmobility  posy  ETV
vector 989  FranciscoScenario.node[89].veinsmobility  posx  ETV
vector 990  FranciscoScenario.node[89].veinsmobility  posy  ETV
vector 1000  FranciscoScenario.node[90].veinsmobility  posx  ETV
vector 1001  FranciscoScenario.node[90].veinsmobility  posy  ETV
vector 1011  FranciscoScenario.node[91].veinsmobility  posx  ETV
vector 1012  FranciscoScenario.node[91].veinsmobility  posy  ETV
vector 1022  FranciscoScenario.node[92].veinsmobility  posx  ETV
vector 1023  FranciscoScenario.node[92].veinsmobility  posy  ETV
vector 1033  FranciscoScenario.node[93].veinsmobility  posx  ETV
vector 1034  FranciscoScenario.node[93].veinsmobility  posy  ETV
vector 1044  FranciscoScenario.node[94].veinsmobility  posx  ETV
vector 1045  FranciscoScenario.node[94].veinsmobility  posy  ETV
vector 1055  FranciscoScenario.node[95].veinsmobility  posx  ETV
vector 1056  FranciscoScenario.node[95].veinsmobility  posy  ETV
vector 1066  FranciscoScenario.node[96].veinsmobility  posx  ETV
vector 1067  FranciscoScenario.node[96].veinsmobility  posy  ETV
vector 1077  FranciscoScenario.node[97].veinsmobility  posx  ETV
vector 1078  FranciscoScenario.node[97].veinsmobility  posy  ETV
vector 1088  FranciscoScenario.node[98].veinsmobility  posx  ETV
vector 1089  FranciscoScenario.node[98].veinsmobility  posy  ETV
vector 1099  FranciscoScenario.node[99].veinsmobility  posx  ETV
vector 1100  FranciscoScenario.node[99].veinsmobility  posy  ETV
vector 1110  FranciscoScenario.node[100].veinsmobility  posx  ETV
vector 1111  FranciscoScenario.node[100].veinsmobility  posy  ETV
vector 1121  FranciscoScenario.node[101].veinsmobility  posx  ETV
vector 1122  FranciscoScenario.node[101].veinsmobility  posy  ETV
vector 1132  FranciscoScenario.node[102].veinsmobility  posx  ETV
vector 1133  FranciscoScenario.node[102].veinsmobility  posy  ETV
vector 1143  FranciscoScenario.node[103].veinsmobility  posx  ETV
vector 1144  FranciscoScenario.node[103].veinsmobility  posy  ETV
vector 1154  FranciscoScenario.node[104].veinsmobility  posx  ETV
vector 1155  FranciscoScenario.node[104].veinsmobility  posy  ETV
vector 1165  FranciscoScenario.node[105].veinsmobility  posx  ETV
vector 1166  FranciscoScenario.node[105].veinsmobility  posy  ETV
vector 1176  FranciscoScenario.node[106].veinsmobility  posx  ETV
vector 1177  FranciscoScenario.node[106].veinsmobility  posy  ETV
vector 1187  FranciscoScenario.node[107].veinsmobility  posx  ETV
vector 1188  FranciscoScenario.node[107].veinsmobility  posy  ETV
vector 1198  FranciscoScenario.node[108].veinsmobility  posx  ETV
vector 1199  FranciscoScenario.node[108].veinsmobility  posy  ETV
vector 1209  FranciscoScenario.node[109].veinsmobility  posx  ETV
vector 1210  FranciscoScenario.node[109].veinsmobility  posy  ETV
vector 1220  FranciscoScenario.node[110].veinsmobility  posx  ETV
vector 1221  FranciscoScenario.node[110].veinsmobility  posy  ETV
vector 1231  FranciscoScenario.node[111].veinsmobility  posx  ETV
vector 1232  FranciscoScenario.node[111].veinsmobility  posy  ETV
vector 1242  FranciscoScenario.node[112].veinsmobility  posx  ETV
vector 1243  FranciscoScenario.node[112].veinsmobility  posy  ETV
vector 1253  FranciscoScenario.node[113].veinsmobility  posx  ETV
vector 1254  FranciscoScenario.node[113].veinsmobility  posy  ETV
vector 1264  FranciscoScenario.node[114].veinsmobility  posx  ETV
vector 1265  FranciscoScenario.node[114].veinsmobility  posy  ETV
vector 1275  FranciscoScenario.node[115].veinsmobility  posx  ETV
vector 1276  FranciscoScenario.node[115].veinsmobility  posy  ETV
vector 23  FranciscoScenario.node[1].veinsmobility  speed  ETV
264	15558 18 13 13 1.2 1.2 1 490.04 490.04 490.04 240139.2016
263	15576 19 13 13 1.2 1.2 1 1264.79 1264.79 1264.79 1599693.7441
vector 1286  FranciscoScenario.node[116].veinsmobility  posx  ETV
vector 1287  FranciscoScenario.node[116].veinsmobility  posy  ETV
vector 1297  FranciscoScenario.node[117].veinsmobility  posx  ETV
vector 1298  FranciscoScenario.node[117].veinsmobility  posy  ETV
vector 1308  FranciscoScenario.node[118].veinsmobility  posx  ETV
vector 1309  FranciscoScenario.node[118].veinsmobility  posy  ETV
vector 24  FranciscoScenario.node[1].veinsmobility  acceleration  ETV
vector 25  FranciscoScenario.node[1].veinsmobility  co2emission  ETV
vector 34  FranciscoScenario.node[2].veinsmobility  speed  ETV
vector 45  FranciscoScenario.node[3].veinsmobility  speed  ETV
vector 56  FranciscoScenario.node[4].veinsmobility  speed  ETV
vector 67  FranciscoScenario.node[5].veinsmobility  speed  ETV
vector 78  FranciscoScenario.node[6].veinsmobility  speed  ETV
vector 89  FranciscoScenario.node[7].veinsmobility  speed  ETV
vector 100  FranciscoScenario.node[8].veinsmobility  speed  ETV
vector 111  FranciscoScenario.node[9].veinsmobility  speed  ETV
vector 122  FranciscoScenario.node[10].veinsmobility  speed  ETV
vector 133  FranciscoScenario.node[11].veinsmobility  speed  ETV
vector 144  FranciscoScenario.node[12].veinsmobility  speed  ETV
vector 155  FranciscoScenario.node[13].veinsmobility  speed  ETV
vector 166  FranciscoScenario.node[14].veinsmobility  speed  ETV
vector 177  FranciscoScenario.node[15].veinsmobility  speed  ETV
vector 188  FranciscoScenario.node[16].veinsmobility  speed  ETV
vector 199  FranciscoScenario.node[17].veinsmobility  speed  ETV
vector 210  FranciscoScenario.node[18].veinsmobility  speed  ETV
vector 221  FranciscoScenario.node[19].veinsmobility  speed  ETV
vector 232  FranciscoScenario.node[20].veinsmobility  speed  ETV
vector 243  FranciscoScenario.node[21].veinsmobility  speed  ETV
vector 254  FranciscoScenario.node[22].veinsmobility  speed  ETV
vector 276  FranciscoScenario.node[24].veinsmobility  speed  ETV
vector 287  FranciscoScenario.node[25].veinsmobility  speed  ETV
vector 298  FranciscoScenario.node[26].veinsmobility  speed  ETV
vector 309  FranciscoScenario.node[27].veinsmobility  speed  ETV
vector 320  FranciscoScenario.node[28].veinsmobility  speed  ETV
vector 331  FranciscoScenario.node[29].veinsmobility  speed  ETV
vector 342  FranciscoScenario.node[30].veinsmobility  speed  ETV
vector 353  FranciscoScenario.node[31].veinsmobility  speed  ETV
vector 364  FranciscoScenario.node[32].veinsmobility  speed  ETV
vector 375  FranciscoScenario.node[33].veinsmobility  speed  ETV
vector 386  FranciscoScenario.node[34].veinsmobility  speed  ETV
vector 397  FranciscoScenario.node[35].veinsmobility  speed  ETV
vector 408  FranciscoScenario.node[36].veinsmobility  speed  ETV
vector 419  FranciscoScenario.node[37].veinsmobility  speed  ETV
vector 430  FranciscoScenario.node[38].veinsmobility  speed  ETV
vector 441  FranciscoScenario.node[39].veinsmobility  speed  ETV
vector 452  FranciscoScenario.node[40].veinsmobility  speed  ETV
vector 463  FranciscoScenario.node[41].veinsmobility  speed  ETV
vector 474  FranciscoScenario.node[42].veinsmobility  speed  ETV
vector 485  FranciscoScenario.node[43].veinsmobility  speed  ETV
vector 496  FranciscoScenario.node[44].veinsmobility  speed  ETV
vector 507  FranciscoScenario.node[45].veinsmobility  speed  ETV
vector 518  FranciscoScenario.node[46].veinsmobility  speed  ETV
vector 529  FranciscoScenario.node[47].veinsmobility  speed  ETV
vector 540  FranciscoScenario.node[48].veinsmobility  speed  ETV
vector 551  FranciscoScenario.node[49].veinsmobility  speed  ETV
vector 562  FranciscoScenario.node[50].veinsmobility  speed  ETV
vector 573  FranciscoScenario.node[51].veinsmobility  speed  ETV
vector 584  FranciscoScenario.node[52].veinsmobility  speed  ETV
vector 595  FranciscoScenario.node[53].veinsmobility  speed  ETV
vector 606  FranciscoScenario.node[54].veinsmobility  speed  ETV
vector 617  FranciscoScenario.node[55].veinsmobility  speed  ETV
vector 628  FranciscoScenario.node[56].veinsmobility  speed  ETV
vector 639  FranciscoScenario.node[57].veinsmobility  speed  ETV
vector 650  FranciscoScenario.node[58].veinsmobility  speed  ETV
vector 661  FranciscoScenario.node[59].veinsmobility  speed  ETV
vector 672  FranciscoScenario.node[60].veinsmobility  speed  ETV
vector 683  FranciscoScenario.node[61].veinsmobility  speed  ETV
vector 694  FranciscoScenario.node[62].veinsmobility  speed  ETV
vector 705  FranciscoScenario.node[63].veinsmobility  speed  ETV
vector 716  FranciscoScenario.node[64].veinsmobility  speed  ETV
vector 727  FranciscoScenario.node[65].veinsmobility  speed  ETV
vector 738  FranciscoScenario.node[66].veinsmobility  speed  ETV
vector 749  FranciscoScenario.node[67].veinsmobility  speed  ETV
vector 760  FranciscoScenario.node[68].veinsmobility  speed  ETV
vector 771  FranciscoScenario.node[69].veinsmobility  speed  ETV
vector 782  FranciscoScenario.node[70].veinsmobility  speed  ETV
vector 793  FranciscoScenario.node[71].veinsmobility  speed  ETV
vector 804  FranciscoScenario.node[72].veinsmobility  speed  ETV
vector 815  FranciscoScenario.node[73].veinsmobility  speed  ETV
vector 826  FranciscoScenario.node[74].veinsmobility  speed  ETV
vector 837  FranciscoScenario.node[75].veinsmobility  speed  ETV
vector 848  FranciscoScenario.node[76].veinsmobility  speed  ETV
vector 859  FranciscoScenario.node[77].veinsmobility  speed  ETV
vector 870  FranciscoScenario.node[78].veinsmobility  speed  ETV
vector 881  FranciscoScenario.node[79].veinsmobility  speed  ETV
vector 892  FranciscoScenario.node[80].veinsmobility  speed  ETV
vector 903  FranciscoScenario.node[81].veinsmobility  speed  ETV
vector 914  FranciscoScenario.node[82].veinsmobility  speed  ETV
vector 925  FranciscoScenario.node[83].veinsmobility  speed  ETV
vector 936  FranciscoScenario.node[84].veinsmobility  speed  ETV
vector 947  FranciscoScenario.node[85].veinsmobility  speed  ETV
vector 958  FranciscoScenario.node[86].veinsmobility  speed  ETV
vector 969  FranciscoScenario.node[87].veinsmobility  speed  ETV
vector 980  FranciscoScenario.node[88].veinsmobility  speed  ETV
vector 991  FranciscoScenario.node[89].veinsmobility  speed  ETV
vector 1002  FranciscoScenario.node[90].veinsmobility  speed  ETV
vector 1013  FranciscoScenario.node[91].veinsmobility  speed  ETV
vector 1024  FranciscoScenario.node[92].veinsmobility  speed  ETV
vector 1035  FranciscoScenario.node[93].veinsmobility  speed  ETV
vector 1046  FranciscoScenario.node[94].veinsmobility  speed  ETV
vector 1057  FranciscoScenario.node[95].veinsmobility  speed  ETV
vector 1068  FranciscoScenario.node[96].veinsmobility  speed  ETV
vector 1079  FranciscoScenario.node[97].veinsmobility  speed  ETV
vector 1090  FranciscoScenario.node[98].veinsmobility  speed  ETV
vector 1101  FranciscoScenario.node[99].veinsmobility  speed  ETV
vector 1112  FranciscoScenario.node[100].veinsmobility  speed  ETV
vector 1123  FranciscoScenario.node[101].veinsmobility  speed  ETV
vector 1134  FranciscoScenario.node[102].veinsmobility  speed  ETV
vector 1145  FranciscoScenario.node[103].veinsmobility  speed  ETV
vector 1156  FranciscoScenario.node[104].veinsmobility  speed  ETV
vector 1167  FranciscoScenario.node[105].veinsmobility  speed  ETV
vector 1178  FranciscoScenario.node[106].veinsmobility  speed  ETV
vector 1189  FranciscoScenario.node[107].veinsmobility  speed  ETV
vector 1200  FranciscoScenario.node[108].veinsmobility  speed  ETV
vector 1211  FranciscoScenario.node[109].veinsmobility  speed  ETV
vector 1222  FranciscoScenario.node[110].veinsmobility  speed  ETV
vector 1233  FranciscoScenario.node[111].veinsmobility  speed  ETV
vector 1244  FranciscoScenario.node[112].veinsmobility  speed  ETV
vector 1255  FranciscoScenario.node[113].veinsmobility  speed  ETV
vector 1266  FranciscoScenario.node[114].veinsmobility  speed  ETV
vector 1277  FranciscoScenario.node[115].veinsmobility  speed  ETV
vector 35  FranciscoScenario.node[2].veinsmobility  acceleration  ETV
vector 36  FranciscoScenario.node[2].veinsmobility  co2emission  ETV
vector 46  FranciscoScenario.node[3].veinsmobility  acceleration  ETV
vector 47  FranciscoScenario.node[3].veinsmobility  co2emission  ETV
vector 57  FranciscoScenario.node[4].veinsmobility  acceleration  ETV
vector 58  FranciscoScenario.node[4].veinsmobility  co2emission  ETV
vector 68  FranciscoScenario.node[5].veinsmobility  acceleration  ETV
vector 69  FranciscoScenario.node[5].veinsmobility  co2emission  ETV
vector 79  FranciscoScenario.node[6].veinsmobility  acceleration  ETV
vector 80  FranciscoScenario.node[6].veinsmobility  co2emission  ETV
vector 90  FranciscoScenario.node[7].veinsmobility  acceleration  ETV
vector 91  FranciscoScenario.node[7].veinsmobility  co2emission  ETV
vector 101  FranciscoScenario.node[8].veinsmobility  acceleration  ETV
vector 102  FranciscoScenario.node[8].veinsmobility  co2emission  ETV
vector 112  FranciscoScenario.node[9].veinsmobility  acceleration  ETV
vector 113  FranciscoScenario.node[9].veinsmobility  co2emission  ETV
vector 123  FranciscoScenario.node[10].veinsmobility  acceleration  ETV
vector 124  FranciscoScenario.node[10].veinsmobility  co2emission  ETV
vector 134  FranciscoScenario.node[11].veinsmobility  acceleration  ETV
vector 135  FranciscoScenario.node[11].veinsmobility  co2emission  ETV
vector 145  FranciscoScenario.node[12].veinsmobility  acceleration  ETV
vector 146  FranciscoScenario.node[12].veinsmobility  co2emission  ETV
vector 156  FranciscoScenario.node[13].veinsmobility  acceleration  ETV
vector 157  FranciscoScenario.node[13].veinsmobility  co2emission  ETV
vector 167  FranciscoScenario.node[14].veinsmobility  acceleration  ETV
vector 168  FranciscoScenario.node[14].veinsmobility  co2emission  ETV
vector 178  FranciscoScenario.node[15].veinsmobility  acceleration  ETV
vector 179  FranciscoScenario.node[15].veinsmobility  co2emission  ETV
vector 189  FranciscoScenario.node[16].veinsmobility  acceleration  ETV
vector 190  FranciscoScenario.node[16].veinsmobility  co2emission  ETV
vector 200  FranciscoScenario.node[17].veinsmobility  acceleration  ETV
vector 201  FranciscoScenario.node[17].veinsmobility  co2emission  ETV
vector 211  FranciscoScenario.node[18].veinsmobility  acceleration  ETV
vector 212  FranciscoScenario.node[18].veinsmobility  co2emission  ETV
vector 222  FranciscoScenario.node[19].veinsmobility  acceleration  ETV
vector 223  FranciscoScenario.node[19].veinsmobility  co2emission  ETV
vector 233  FranciscoScenario.node[20].veinsmobility  acceleration  ETV
vector 234  FranciscoScenario.node[20].veinsmobility  co2emission  ETV
vector 244  FranciscoScenario.node[21].veinsmobility  acceleration  ETV
vector 245  FranciscoScenario.node[21].veinsmobility  co2emission  ETV
vector 255  FranciscoScenario.node[22].veinsmobility  acceleration  ETV
vector 256  FranciscoScenario.node[22].veinsmobility  co2emission  ETV
vector 277  FranciscoScenario.node[24].veinsmobility  acceleration  ETV
vector 278  FranciscoScenario.node[24].veinsmobility  co2emission  ETV
vector 288  FranciscoScenario.node[25].veinsmobility  acceleration  ETV
vector 289  FranciscoScenario.node[25].veinsmobility  co2emission  ETV
vector 299  FranciscoScenario.node[26].veinsmobility  acceleration  ETV
vector 300  FranciscoScenario.node[26].veinsmobility  co2emission  ETV
vector 310  FranciscoScenario.node[27].veinsmobility  acceleration  ETV
vector 311  FranciscoScenario.node[27].veinsmobility  co2emission  ETV
vector 321  FranciscoScenario.node[28].veinsmobility  acceleration  ETV
vector 322  FranciscoScenario.node[28].veinsmobility  co2emission  ETV
vector 332  FranciscoScenario.node[29].veinsmobility  acceleration  ETV
vector 333  FranciscoScenario.node[29].veinsmobility  co2emission  ETV
vector 343  FranciscoScenario.node[30].veinsmobility  acceleration  ETV
vector 344  FranciscoScenario.node[30].veinsmobility  co2emission  ETV
vector 354  FranciscoScenario.node[31].veinsmobility  acceleration  ETV
vector 355  FranciscoScenario.node[31].veinsmobility  co2emission  ETV
vector 365  FranciscoScenario.node[32].veinsmobility  acceleration  ETV
vector 366  FranciscoScenario.node[32].veinsmobility  co2emission  ETV
vector 376  FranciscoScenario.node[33].veinsmobility  acceleration  ETV
vector 377  FranciscoScenario.node[33].veinsmobility  co2emission  ETV
vector 387  FranciscoScenario.node[34].veinsmobility  acceleration  ETV
vector 388  FranciscoScenario.node[34].veinsmobility  co2emission  ETV
vector 398  FranciscoScenario.node[35].veinsmobility  acceleration  ETV
vector 399  FranciscoScenario.node[35].veinsmobility  co2emission  ETV
vector 409  FranciscoScenario.node[36].veinsmobility  acceleration  ETV
vector 410  FranciscoScenario.node[36].veinsmobility  co2emission  ETV
vector 420  FranciscoScenario.node[37].veinsmobility  acceleration  ETV
vector 421  FranciscoScenario.node[37].veinsmobility  co2emission  ETV
vector 431  FranciscoScenario.node[38].veinsmobility  acceleration  ETV
vector 432  FranciscoScenario.node[38].veinsmobility  co2emission  ETV
vector 442  FranciscoScenario.node[39].veinsmobility  acceleration  ETV
vector 443  FranciscoScenario.node[39].veinsmobility  co2emission  ETV
vector 453  FranciscoScenario.node[40].veinsmobility  acceleration  ETV
vector 454  FranciscoScenario.node[40].veinsmobility  co2emission  ETV
vector 464  FranciscoScenario.node[41].veinsmobility  acceleration  ETV
vector 465  FranciscoScenario.node[41].veinsmobility  co2emission  ETV
vector 475  FranciscoScenario.node[42].veinsmobility  acceleration  ETV
vector 476  FranciscoScenario.node[42].veinsmobility  co2emission  ETV
vector 486  FranciscoScenario.node[43].veinsmobility  acceleration  ETV
vector 487  FranciscoScenario.node[43].veinsmobility  co2emission  ETV
vector 497  FranciscoScenario.node[44].veinsmobility  acceleration  ETV
vector 498  FranciscoScenario.node[44].veinsmobility  co2emission  ETV
vector 508  FranciscoScenario.node[45].veinsmobility  acceleration  ETV
vector 509  FranciscoScenario.node[45].veinsmobility  co2emission  ETV
vector 519  FranciscoScenario.node[46].veinsmobility  acceleration  ETV
vector 520  FranciscoScenario.node[46].veinsmobility  co2emission  ETV
vector 530  FranciscoScenario.node[47].veinsmobility  acceleration  ETV