file 2558130 1408460617                                         
version 2
run Flooding-0-20140819-09:02:47-6284
attr configname Flooding
attr datetime 20140819-09:02:47
attr experiment Flooding
attr inifile omnetpp.ini
attr iterationvars ""
attr iterationvars2 $repetition=0
attr measurement ""
attr network src.modules.scenario.FranciscoScenario
attr processid 6284
attr repetition 0
attr replication #0
attr resultdir results
attr runnumber 0
attr seedset 0

vector 12  FranciscoScenario.node[0].veinsmobility  posx  ETV
vector 13  FranciscoScenario.node[0].veinsmobility  posy  ETV
vector 14  FranciscoScenario.node[0].veinsmobility  speed  ETV
vector 15  FranciscoScenario.node[0].veinsmobility  acceleration  ETV
vector 16  FranciscoScenario.node[0].veinsmobility  co2emission  ETV
vector 23  FranciscoScenario.node[1].veinsmobility  posx  ETV
vector 24  FranciscoScenario.node[1].veinsmobility  posy  ETV
vector 34  FranciscoScenario.node[2].veinsmobility  posx  ETV
vector 35  FranciscoScenario.node[2].veinsmobility  posy  ETV
vector 45  FranciscoScenario.node[3].veinsmobility  posx  ETV
vector 46  FranciscoScenario.node[3].veinsmobility  posy  ETV
vector 56  FranciscoScenario.node[4].veinsmobility  posx  ETV
vector 57  FranciscoScenario.node[4].veinsmobility  posy  ETV
vector 67  FranciscoScenario.node[5].veinsmobility  posx  ETV
vector 68  FranciscoScenario.node[5].veinsmobility  posy  ETV
vector 78  FranciscoScenario.node[6].veinsmobility  posx  ETV
vector 79  FranciscoScenario.node[6].veinsmobility  posy  ETV
vector 89  FranciscoScenario.node[7].veinsmobility  posx  ETV
vector 90  FranciscoScenario.node[7].veinsmobility  posy  ETV
vector 100  FranciscoScenario.node[8].veinsmobility  posx  ETV
vector 101  FranciscoScenario.node[8].veinsmobility  posy  ETV
vector 111  FranciscoScenario.node[9].veinsmobility  posx  ETV
vector 112  FranciscoScenario.node[9].veinsmobility  posy  ETV
vector 122  FranciscoScenario.node[10].veinsmobility  posx  ETV
vector 123  FranciscoScenario.node[10].veinsmobility  posy  ETV
vector 133  FranciscoScenario.node[11].veinsmobility  posx  ETV
vector 134  FranciscoScenario.node[11].veinsmobility  posy  ETV
vector 144  FranciscoScenario.node[12].veinsmobility  posx  ETV
vector 145  FranciscoScenario.node[12].veinsmobility  posy  ETV
vector 155  FranciscoScenario.node[13].veinsmobility  posx  ETV
vector 156  FranciscoScenario.node[13].veinsmobility  posy  ETV
vector 166  FranciscoScenario.node[14].veinsmobility  posx  ETV
vector 167  FranciscoScenario.node[14].veinsmobility  posy  ETV
vector 177  FranciscoScenario.node[15].veinsmobility  posx  ETV
vector 178  FranciscoScenario.node[15].veinsmobility  posy  ETV
vector 188  FranciscoScenario.node[16].veinsmobility  posx  ETV
vector 189  FranciscoScenario.node[16].veinsmobility  posy  ETV
vector 199  FranciscoScenario.node[17].veinsmobility  posx  ETV
vector 200  FranciscoScenario.node[17].veinsmobility  posy  ETV
vector 210  FranciscoScenario.node[18].veinsmobility  posx  ETV
vector 211  FranciscoScenario.node[18].veinsmobility  posy  ETV
vector 221  FranciscoScenario.node[19].veinsmobility  posx  ETV
vector 222  FranciscoScenario.node[19].veinsmobility  posy  ETV
vector 232  FranciscoScenario.node[20].veinsmobility  posx  ETV
vector 233  FranciscoScenario.node[20].veinsmobility  posy  ETV
vector 243  FranciscoScenario.node[21].veinsmobility  posx  ETV
vector 244  FranciscoScenario.node[21].veinsmobility  posy  ETV
vector 254  FranciscoScenario.node[22].veinsmobility  posx  ETV
vector 255  FranciscoScenario.node[22].veinsmobility  posy  ETV
vector 265  FranciscoScenario.node[23].veinsmobility  posx  ETV
vector 266  FranciscoScenario.node[23].veinsmobility  posy  ETV
vector 276  FranciscoScenario.node[24].veinsmobility  posx  ETV
vector 277  FranciscoScenario.node[24].veinsmobility  posy  ETV
vector 287  FranciscoScenario.node[25].veinsmobility  posx  ETV
vector 288  FranciscoScenario.node[25].veinsmobility  posy  ETV
vector 298  FranciscoScenario.node[26].veinsmobility  posx  ETV
vector 299  FranciscoScenario.node[26].veinsmobility  posy  ETV
vector 309  FranciscoScenario.node[27].veinsmobility  posx  ETV
vector 310  FranciscoScenario.node[27].veinsmobility  posy  ETV
vector 320  FranciscoScenario.node[28].veinsmobility  posx  ETV
vector 321  FranciscoScenario.node[28].veinsmobility  posy  ETV
vector 331  FranciscoScenario.node[29].veinsmobility  posx  ETV
vector 332  FranciscoScenario.node[29].veinsmobility  posy  ETV
vector 342  FranciscoScenario.node[30].veinsmobility  posx  ETV
vector 343  FranciscoScenario.node[30].veinsmobility  posy  ETV
vector 353  FranciscoScenario.node[31].veinsmobility  posx  ETV
vector 354  FranciscoScenario.node[31].veinsmobility  posy  ETV
vector 364  FranciscoScenario.node[32].veinsmobility  posx  ETV
vector 365  FranciscoScenario.node[32].veinsmobility  posy  ETV
vector 375  FranciscoScenario.node[33].veinsmobility  posx  ETV
vector 376  FranciscoScenario.node[33].veinsmobility  posy  ETV
vector 386  FranciscoScenario.node[34].veinsmobility  posx  ETV
vector 387  FranciscoScenario.node[34].veinsmobility  posy  ETV
vector 397  FranciscoScenario.node[35].veinsmobility  posx  ETV
vector 398  FranciscoScenario.node[35].veinsmobility  posy  ETV
vector 408  FranciscoScenario.node[36].veinsmobility  posx  ETV
vector 409  FranciscoScenario.node[36].veinsmobility  posy  ETV
vector 419  FranciscoScenario.node[37].veinsmobility  posx  ETV
vector 420  FranciscoScenario.node[37].veinsmobility  posy  ETV
vector 430  FranciscoScenario.node[38].veinsmobility  posx  ETV
vector 431  FranciscoScenario.node[38].veinsmobility  posy  ETV
vector 441  FranciscoScenario.node[39].veinsmobility  posx  ETV
vector 442  FranciscoScenario.node[39].veinsmobility  posy  ETV
vector 452  FranciscoScenario.node[40].veinsmobility  posx  ETV
vector 453  FranciscoScenario.node[40].veinsmobility  posy  ETV
vector 463  FranciscoScenario.node[41].veinsmobility  posx  ETV
vector 464  FranciscoScenario.node[41].veinsmobility  posy  ETV
vector 474  FranciscoScenario.node[42].veinsmobility  posx  ETV
vector 475  FranciscoScenario.node[42].veinsmobility  posy  ETV
vector 485  FranciscoScenario.node[43].veinsmobility  posx  ETV
vector 486  FranciscoScenario.node[43].veinsmobility  posy  ETV
vector 496  FranciscoScenario.node[44].veinsmobility  posx  ETV
vector 497  FranciscoScenario.node[44].veinsmobility  posy  ETV
vector 507  FranciscoScenario.node[45].veinsmobility  posx  ETV
vector 508  FranciscoScenario.node[45].veinsmobility  posy  ETV
vector 518  FranciscoScenario.node[46].veinsmobility  posx  ETV
vector 519  FranciscoScenario.node[46].veinsmobility  posy  ETV
vector 529  FranciscoScenario.node[47].veinsmobility  posx  ETV
vector 530  FranciscoScenario.node[47].veinsmobility  posy  ETV
vector 540  FranciscoScenario.node[48].veinsmobility  posx  ETV
vector 541  FranciscoScenario.node[48].veinsmobility  posy  ETV
vector 551  FranciscoScenario.node[49].veinsmobility  posx  ETV
vector 552  FranciscoScenario.node[49].veinsmobility  posy  ETV
vector 562  FranciscoScenario.node[50].veinsmobility  posx  ETV
vector 563  FranciscoScenario.node[50].veinsmobility  posy  ETV
vector 573  FranciscoScenario.node[51].veinsmobility  posx  ETV
vector 574  FranciscoScenario.node[51].veinsmobility  posy  ETV
vector 584  FranciscoScenario.node[52].veinsmobility  posx  ETV
vector 585  FranciscoScenario.node[52].veinsmobility  posy  ETV
vector 595  FranciscoScenario.node[53].veinsmobility  posx  ETV
vector 596  FranciscoScenario.node[53].veinsmobility  posy  ETV
vector 606  FranciscoScenario.node[54].veinsmobility  posx  ETV
vector 607  FranciscoScenario.node[54].veinsmobility  posy  ETV
vector 617  FranciscoScenario.node[55].veinsmobility  posx  ETV
vector 618  FranciscoScenario.node[55].veinsmobility  posy  ETV
vector 628  FranciscoScenario.node[56].veinsmobility  posx  ETV
vector 629  FranciscoScenario.node[56].veinsmobility  posy  ETV
vector 639  FranciscoScenario.node[57].veinsmobility  posx  ETV
vector 640  FranciscoScenario.node[57].veinsmobility  posy  ETV
vector 650  FranciscoScenario.node[58].veinsmobility  posx  ETV
vector 651  FranciscoScenario.node[58].veinsmobility  posy  ETV
vector 661  FranciscoScenario.node[59].veinsmobility  posx  ETV
vector 662  FranciscoScenario.node[59].veinsmobility  posy  ETV
vector 672  FranciscoScenario.node[60].veinsmobility  posx  ETV
vector 673  FranciscoScenario.node[60].veinsmobility  posy  ETV
vector 683  FranciscoScenario.node[61].veinsmobility  posx  ETV
vector 684  FranciscoScenario.node[61].veinsmobility  posy  ETV
vector 694  FranciscoScenario.node[62].veinsmobility  posx  ETV
vector 695  FranciscoScenario.node[62].veinsmobility  posy  ETV
vector 705  FranciscoScenario.node[63].veinsmobility  posx  ETV
vector 706  FranciscoScenario.node[63].veinsmobility  posy  ETV
vector 716  FranciscoScenario.node[64].veinsmobility  posx  ETV
vector 717  FranciscoScenario.node[64].veinsmobility  posy  ETV
vector 727  FranciscoScenario.node[65].veinsmobility  posx  ETV
vector 728  FranciscoScenario.node[65].veinsmobility  posy  ETV
vector 738  FranciscoScenario.node[66].veinsmobility  posx  ETV
vector 739  FranciscoScenario.node[66].veinsmobility  posy  ETV
vector 749  FranciscoScenario.node[67].veinsmobility  posx  ETV
vector 750  FranciscoScenario.node[67].veinsmobility  posy  ETV
vector 760  FranciscoScenario.node[68].veinsmobility  posx  ETV
vector 761  FranciscoScenario.node[68].veinsmobility  posy  ETV
vector 771  FranciscoScenario.node[69].veinsmobility  posx  ETV
vector 772  FranciscoScenario.node[69].veinsmobility  posy  ETV
vector 782  FranciscoScenario.node[70].veinsmobility  posx  ETV
vector 783  FranciscoScenario.node[70].veinsmobility  posy  ETV
vector 793  FranciscoScenario.node[71].veinsmobility  posx  ETV
vector 794  FranciscoScenario.node[71].veinsmobility  posy  ETV
vector 804  FranciscoScenario.node[72].veinsmobility  posx  ETV
vector 805  FranciscoScenario.node[72].veinsmobility  posy  ETV
vector 815  FranciscoScenario.node[73].veinsmobility  posx  ETV
vector 816  FranciscoScenario.node[73].veinsmobility  posy  ETV
vector 826  FranciscoScenario.node[74].veinsmobility  posx  ETV
vector 827  FranciscoScenario.node[74].veinsmobility  posy  ETV
vector 837  FranciscoScenario.node[75].veinsmobility  posx  ETV
vector 838  FranciscoScenario.node[75].veinsmobility  posy  ETV
vector 848  FranciscoScenario.node[76].veinsmobility  posx  ETV
vector 849  FranciscoScenario.node[76].veinsmobility  posy  ETV
vector 859  FranciscoScenario.node[77].veinsmobility  posx  ETV
vector 860  FranciscoScenario.node[77].veinsmobility  posy  ETV
vector 870  FranciscoScenario.node[78].veinsmobility  posx  ETV
vector 871  FranciscoScenario.node[78].veinsmobility  posy  ETV
vector 881  FranciscoScenario.node[79].veinsmobility  posx  ETV
vector 882  FranciscoScenario.node[79].veinsmobility  posy  ETV
vector 892  FranciscoScenario.node[80].veinsmobility  posx  ETV
vector 893  FranciscoScenario.node[80].veinsmobility  posy  ETV
vector 903  FranciscoScenario.node[81].veinsmobility  posx  ETV
vector 904  FranciscoScenario.node[81].veinsmobility  posy  ETV
vector 914  FranciscoScenario.node[82].veinsmobility  posx  ETV
vector 915  FranciscoScenario.node[82].veinsmobility  posy  ETV
vector 925  FranciscoScenario.node[83].veinsmobility  posx  ETV
vector 926  FranciscoScenario.node[83].veinsmobility  posy  ETV
vector 936  FranciscoScenario.node[84].veinsmobility  posx  ETV
vector 937  FranciscoScenario.node[84].veinsmobility  posy  ETV
vector 947  FranciscoScenario.node[85].veinsmobility  posx  ETV
vector 948  FranciscoScenario.node[85].veinsmobility  posy  ETV
vector 958  FranciscoScenario.node[86].veinsmobility  posx  ETV
vector 959  FranciscoScenario.node[86].veinsmobility  posy  ETV
vector 969  FranciscoScenario.node[87].veinsmobility  posx  ETV
vector 970  FranciscoScenario.node[87].veinsmobility  posy  ETV
vector 980  FranciscoScenario.node[88].veinsmobility  posx  ETV
vector 981  FranciscoScenario.node[88].veinsmobility  posy  ETV
vector 991  FranciscoScenario.node[89].veinsmobility  posx  ETV
vector 992  FranciscoScenario.node[89].veinsmobility  posy  ETV
vector 1002  FranciscoScenario.node[90].veinsmobility  posx  ETV
vector 1003  FranciscoScenario.node[90].veinsmobility  posy  ETV
vector 1013  FranciscoScenario.node[91].veinsmobility  posx  ETV
vector 1014  FranciscoScenario.node[91].veinsmobility  posy  ETV
vector 1024  FranciscoScenario.node[92].veinsmobility  posx  ETV
vector 1025  FranciscoScenario.node[92].veinsmobility  posy  ETV
vector 1035  FranciscoScenario.node[93].veinsmobility  posx  ETV
vector 1036  FranciscoScenario.node[93].veinsmobility  posy  ETV
vector 1046  FranciscoScenario.node[94].veinsmobility  posx  ETV
vector 1047  FranciscoScenario.node[94].veinsmobility  posy  ETV
vector 1057  FranciscoScenario.node[95].veinsmobility  posx  ETV
vector 1058  FranciscoScenario.node[95].veinsmobility  posy  ETV
vector 1068  FranciscoScenario.node[96].veinsmobility  posx  ETV
vector 1069  FranciscoScenario.node[96].veinsmobility  posy  ETV
vector 1079  FranciscoScenario.node[97].veinsmobility  posx  ETV
vector 1080  FranciscoScenario.node[97].veinsmobility  posy  ETV
vector 1090  FranciscoScenario.node[98].veinsmobility  posx  ETV
vector 1091  FranciscoScenario.node[98].veinsmobility  posy  ETV
vector 1101  FranciscoScenario.node[99].veinsmobility  posx  ETV
vector 1102  FranciscoScenario.node[99].veinsmobility  posy  ETV
vector 1112  FranciscoScenario.node[100].veinsmobility  posx  ETV
vector 1113  FranciscoScenario.node[100].veinsmobility  posy  ETV
vector 1123  FranciscoScenario.node[101].veinsmobility  posx  ETV
vector 1124  FranciscoScenario.node[101].veinsmobility  posy  ETV
vector 1134  FranciscoScenario.node[102].veinsmobility  posx  ETV
vector 1135  FranciscoScenario.node[102].veinsmobility  posy  ETV
vector 1145  FranciscoScenario.node[103].veinsmobility  posx  ETV
vector 1146  FranciscoScenario.node[103].veinsmobility  posy  ETV
vector 1156  FranciscoScenario.node[104].veinsmobility  posx  ETV
vector 1157  FranciscoScenario.node[104].veinsmobility  posy  ETV
vector 1167  FranciscoScenario.node[105].veinsmobility  posx  ETV
vector 1168  FranciscoScenario.node[105].veinsmobility  posy  ETV
vector 1178  FranciscoScenario.node[106].veinsmobility  posx  ETV
vector 1179  FranciscoScenario.node[106].veinsmobility  posy  ETV
vector 1189  FranciscoScenario.node[107].veinsmobility  posx  ETV
vector 1190  FranciscoScenario.node[107].veinsmobility  posy  ETV
vector 1200  FranciscoScenario.node[108].veinsmobility  posx  ETV
vector 1201  FranciscoScenario.node[108].veinsmobility  posy  ETV
vector 1211  FranciscoScenario.node[109].veinsmobility  posx  ETV
vector 1212  FranciscoScenario.node[109].veinsmobility  posy  ETV
vector 1222  FranciscoScenario.node[110].veinsmobility  posx  ETV
vector 1223  FranciscoScenario.node[110].veinsmobility  posy  ETV
vector 1233  FranciscoScenario.node[111].veinsmobility  posx  ETV
vector 1234  FranciscoScenario.node[111].veinsmobility  posy  ETV
vector 1244  FranciscoScenario.node[112].veinsmobility  posx  ETV
vector 1245  FranciscoScenario.node[112].veinsmobility  posy  ETV
vector 1255  FranciscoScenario.node[113].veinsmobility  posx  ETV
vector 1256  FranciscoScenario.node[113].veinsmobility  posy  ETV
vector 1266  FranciscoScenario.node[114].veinsmobility  posx  ETV
vector 1267  FranciscoScenario.node[114].veinsmobility  posy  ETV
vector 1277  FranciscoScenario.node[115].veinsmobility  posx  ETV
vector 1278  FranciscoScenario.node[115].veinsmobility  posy  ETV
vector 25  FranciscoScenario.node[1].veinsmobility  speed  ETV
266	15558 18 13 13 1.2 1.2 1 490.04 490.04 490.04 240139.2016
265	15576 19 13 13 1.2 1.2 1 1264.79 1264.79 1264.79 1599693.7441
vector 1288  FranciscoScenario.node[116].veinsmobility  posx  ETV
vector 1289  FranciscoScenario.node[116].veinsmobility  posy  ETV
vector 1299  FranciscoScenario.node[117].veinsmobility  posx  ETV
vector 1300  FranciscoScenario.node[117].veinsmobility  posy  ETV
vector 1310  FranciscoScenario.node[118].veinsmobility  posx  ETV
vector 1311  FranciscoScenario.node[118].veinsmobility  posy  ETV
vector 26  FranciscoScenario.node[1].veinsmobility  acceleration  ETV
vector 27  FranciscoScenario.node[1].veinsmobility  co2emission  ETV
vector 36  FranciscoScenario.node[2].veinsmobility  speed  ETV
vector 47  FranciscoScenario.node[3].veinsmobility  speed  ETV
vector 58  FranciscoScenario.node[4].veinsmobility  speed  ETV
vector 69  FranciscoScenario.node[5].veinsmobility  speed  ETV
vector 80  FranciscoScenario.node[6].veinsmobility  speed  ETV
vector 91  FranciscoScenario.node[7].veinsmobility  speed  ETV
vector 102  FranciscoScenario.node[8].veinsmobility  speed  ETV
vector 113  FranciscoScenario.node[9].veinsmobility  speed  ETV
vector 124  FranciscoScenario.node[10].veinsmobility  speed  ETV
vector 135  FranciscoScenario.node[11].veinsmobility  speed  ETV
vector 146  FranciscoScenario.node[12].veinsmobility  speed  ETV
vector 157  FranciscoScenario.node[13].veinsmobility  speed  ETV
vector 168  FranciscoScenario.node[14].veinsmobility  speed  ETV
vector 179  FranciscoScenario.node[15].veinsmobility  speed  ETV
vector 190  FranciscoScenario.node[16].veinsmobility  speed  ETV
vector 201  FranciscoScenario.node[17].veinsmobility  speed  ETV
vector 212  FranciscoScenario.node[18].veinsmobility  speed  ETV
vector 223  FranciscoScenario.node[19].veinsmobility  speed  ETV
vector 234  FranciscoScenario.node[20].veinsmobility  speed  ETV
vector 245  FranciscoScenario.node[21].veinsmobility  speed  ETV
vector 256  FranciscoScenario.node[22].veinsmobility  speed  ETV
vector 278  FranciscoScenario.node[24].veinsmobility  speed  ETV
vector 289  FranciscoScenario.node[25].veinsmobility  speed  ETV
vector 300  FranciscoScenario.node[26].veinsmobility  speed  ETV
vector 311  FranciscoScenario.node[27].veinsmobility  speed  ETV
vector 322  FranciscoScenario.node[28].veinsmobility  speed  ETV
vector 333  FranciscoScenario.node[29].veinsmobility  speed  ETV
vector 344  FranciscoScenario.node[30].veinsmobility  speed  ETV
vector 355  FranciscoScenario.node[31].veinsmobility  speed  ETV
vector 366  FranciscoScenario.node[32].veinsmobility  speed  ETV
vector 377  FranciscoScenario.node[33].veinsmobility  speed  ETV
vector 388  FranciscoScenario.node[34].veinsmobility  speed  ETV
vector 399  FranciscoScenario.node[35].veinsmobility  speed  ETV
vector 410  FranciscoScenario.node[36].veinsmobility  speed  ETV
vector 421  FranciscoScenario.node[37].veinsmobility  speed  ETV
vector 432  FranciscoScenario.node[38].veinsmobility  speed  ETV
vector 443  FranciscoScenario.node[39].veinsmobility  speed  ETV
vector 454  FranciscoScenario.node[40].veinsmobility  speed  ETV
vector 465  FranciscoScenario.node[41].veinsmobility  speed  ETV
vector 476  FranciscoScenario.node[42].veinsmobility  speed  ETV
vector 487  FranciscoScenario.node[43].veinsmobility  speed  ETV
vector 498  FranciscoScenario.node[44].veinsmobility  speed  ETV
vector 509  FranciscoScenario.node[45].veinsmobility  speed  ETV
vector 520  FranciscoScenario.node[46].veinsmobility  speed  ETV
vector 531  FranciscoScenario.node[47].veinsmobility  speed  ETV
vector 542  FranciscoScenario.node[48].veinsmobility  speed  ETV
vector 553  FranciscoScenario.node[49].veinsmobility  speed  ETV
vector 564  FranciscoScenario.node[50].veinsmobility  speed  ETV
vector 575  FranciscoScenario.node[51].veinsmobility  speed  ETV
vector 586  FranciscoScenario.node[52].veinsmobility  speed  ETV
vector 597  FranciscoScenario.node[53].veinsmobility  speed  ETV
vector 608  FranciscoScenario.node[54].veinsmobility  speed  ETV
vector 619  FranciscoScenario.node[55].veinsmobility  speed  ETV
vector 630  FranciscoScenario.node[56].veinsmobility  speed  ETV
vector 641  FranciscoScenario.node[57].veinsmobility  speed  ETV
vector 652  FranciscoScenario.node[58].veinsmobility  speed  ETV
vector 663  FranciscoScenario.node[59].veinsmobility  speed  ETV
vector 674  FranciscoScenario.node[60].veinsmobility  speed  ETV
vector 685  FranciscoScenario.node[61].veinsmobility  speed  ETV
vector 696  FranciscoScenario.node[62].veinsmobility  speed  ETV
vector 707  FranciscoScenario.node[63].veinsmobility  speed  ETV
vector 718  FranciscoScenario.node[64].veinsmobility  speed  ETV
vector 729  FranciscoScenario.node[65].veinsmobility  speed  ETV
vector 740  FranciscoScenario.node[66].veinsmobility  speed  ETV
vector 751  FranciscoScenario.node[67].veinsmobility  speed  ETV
vector 762  FranciscoScenario.node[68].veinsmobility  speed  ETV
vector 773  FranciscoScenario.node[69].veinsmobility  speed  ETV
vector 784  FranciscoScenario.node[70].veinsmobility  speed  ETV
vector 795  FranciscoScenario.node[71].veinsmobility  speed  ETV
vector 806  FranciscoScenario.node[72].veinsmobility  speed  ETV
vector 817  FranciscoScenario.node[73].veinsmobility  speed  ETV
vector 828  FranciscoScenario.node[74].veinsmobility  speed  ETV
vector 839  FranciscoScenario.node[75].veinsmobility  speed  ETV
vector 850  FranciscoScenario.node[76].veinsmobility  speed  ETV
vector 861  FranciscoScenario.node[77].veinsmobility  speed  ETV
vector 872  FranciscoScenario.node[78].veinsmobility  speed  ETV
vector 883  FranciscoScenario.node[79].veinsmobility  speed  ETV
vector 894  FranciscoScenario.node[80].veinsmobility  speed  ETV
vector 905  FranciscoScenario.node[81].veinsmobility  speed  ETV
vector 916  FranciscoScenario.node[82].veinsmobility  speed  ETV
vector 927  FranciscoScenario.node[83].veinsmobility  speed  ETV
vector 938  FranciscoScenario.node[84].veinsmobility  speed  ETV
vector 949  FranciscoScenario.node[85].veinsmobility  speed  ETV
vector 960  FranciscoScenario.node[86].veinsmobility  speed  ETV
vector 971  FranciscoScenario.node[87].veinsmobility  speed  ETV
vector 982  FranciscoScenario.node[88].veinsmobility  speed  ETV
vector 993  FranciscoScenario.node[89].veinsmobility  speed  ETV
vector 1004  FranciscoScenario.node[90].veinsmobility  speed  ETV
vector 1015  FranciscoScenario.node[91].veinsmobility  speed  ETV
vector 1026  FranciscoScenario.node[92].veinsmobility  speed  ETV
vector 1037  FranciscoScenario.node[93].veinsmobility  speed  ETV
vector 1048  FranciscoScenario.node[94].veinsmobility  speed  ETV
vector 1059  FranciscoScenario.node[95].veinsmobility  speed  ETV
vector 1070  FranciscoScenario.node[96].veinsmobility  speed  ETV
vector 1081  FranciscoScenario.node[97].veinsmobility  speed  ETV
vector 1092  FranciscoScenario.node[98].veinsmobility  speed  ETV
vector 1103  FranciscoScenario.node[99].veinsmobility  speed  ETV
vector 1114  FranciscoScenario.node[100].veinsmobility  speed  ETV
vector 1125  FranciscoScenario.node[101].veinsmobility  speed  ETV
vector 1136  FranciscoScenario.node[102].veinsmobility  speed  ETV
vector 1147  FranciscoScenario.node[103].veinsmobility  speed  ETV
vector 1158  FranciscoScenario.node[104].veinsmobility  speed  ETV
vector 1169  FranciscoScenario.node[105].veinsmobility  speed  ETV
vector 1180  FranciscoScenario.node[106].veinsmobility  speed  ETV
vector 1191  FranciscoScenario.node[107].veinsmobility  speed  ETV
vector 1202  FranciscoScenario.node[108].veinsmobility  speed  ETV
vector 1213  FranciscoScenario.node[109].veinsmobility  speed  ETV
vector 1224  FranciscoScenario.node[110].veinsmobility  speed  ETV
vector 1235  FranciscoScenario.node[111].veinsmobility  speed  ETV
vector 1246  FranciscoScenario.node[112].veinsmobility  speed  ETV
vector 1257  FranciscoScenario.node[113].veinsmobility  speed  ETV
vector 1268  FranciscoScenario.node[114].veinsmobility  speed  ETV
vector 1279  FranciscoScenario.node[115].veinsmobility  speed  ETV
vector 37  FranciscoScenario.node[2].veinsmobility  acceleration  ETV
vector 38  FranciscoScenario.node[2].veinsmobility  co2emission  ETV
vector 48  FranciscoScenario.node[3].veinsmobility  acceleration  ETV
vector 49  FranciscoScenario.node[3].veinsmobility  co2emission  ETV
vector 59  FranciscoScenario.node[4].veinsmobility  acceleration  ETV
vector 60  FranciscoScenario.node[4].veinsmobility  co2emission  ETV
vector 70  FranciscoScenario.node[5].veinsmobility  acceleration  ETV
vector 71  FranciscoScenario.node[5].veinsmobility  co2emission  ETV
vector 81  FranciscoScenario.node[6].veinsmobility  acceleration  ETV
vector 82  FranciscoScenario.node[6].veinsmobility  co2emission  ETV
vector 92  FranciscoScenario.node[7].veinsmobility  acceleration  ETV
vector 93  FranciscoScenario.node[7].veinsmobility  co2emission  ETV
vector 103  FranciscoScenario.node[8].veinsmobility  acceleration  ETV
vector 104  FranciscoScenario.node[8].veinsmobility  co2emission  ETV
vector 114  FranciscoScenario.node[9].veinsmobility  acceleration  ETV
vector 115  FranciscoScenario.node[9].veinsmobility  co2emission  ETV
vector 125  FranciscoScenario.node[10].veinsmobility  acceleration  ETV
vector 126  FranciscoScenario.node[10].veinsmobility  co2emission  ETV
vector 136  FranciscoScenario.node[11].veinsmobility  acceleration  ETV
vector 137  FranciscoScenario.node[11].veinsmobility  co2emission  ETV
vector 147  FranciscoScenario.node[12].veinsmobility  acceleration  ETV
vector 148  FranciscoScenario.node[12].veinsmobility  co2emission  ETV
vector 158  FranciscoScenario.node[13].veinsmobility  acceleration  ETV
vector 159  FranciscoScenario.node[13].veinsmobility  co2emission  ETV
vector 169  FranciscoScenario.node[14].veinsmobility  acceleration  ETV
vector 170  FranciscoScenario.node[14].veinsmobility  co2emission  ETV
vector 180  FranciscoScenario.node[15].veinsmobility  acceleration  ETV
vector 181  FranciscoScenario.node[15].veinsmobility  co2emission  ETV
vector 191  FranciscoScenario.node[16].veinsmobility  acceleration  ETV
vector 192  FranciscoScenario.node[16].veinsmobility  co2emission  ETV
vector 202  FranciscoScenario.node[17].veinsmobility  acceleration  ETV
vector 203  FranciscoScenario.node[17].veinsmobility  co2emission  ETV
vector 213  FranciscoScenario.node[18].veinsmobility  acceleration  ETV
vector 214  FranciscoScenario.node[18].veinsmobility  co2emission  ETV
vector 224  FranciscoScenario.node[19].veinsmobility  acceleration  ETV
vector 225  FranciscoScenario.node[19].veinsmobility  co2emission  ETV
vector 235  FranciscoScenario.node[20].veinsmobility  acceleration  ETV
vector 236  FranciscoScenario.node[20].veinsmobility  co2emission  ETV
vector 246  FranciscoScenario.node[21].veinsmobility  acceleration  ETV
vector 247  FranciscoScenario.node[21].veinsmobility  co2emission  ETV
vector 257  FranciscoScenario.node[22].veinsmobility  acceleration  ETV
vector 258  FranciscoScenario.node[22].veinsmobility  co2emission  ETV
vector 279  FranciscoScenario.node[24].veinsmobility  acceleration  ETV
vector 280  FranciscoScenario.node[24].veinsmobility  co2emission  ETV
vector 290  FranciscoScenario.node[25].veinsmobility  acceleration  ETV
vector 291  FranciscoScenario.node[25].veinsmobility  co2emission  ETV
vector 301  FranciscoScenario.node[26].veinsmobility  acceleration  ETV
vector 302  FranciscoScenario.node[26].veinsmobility  co2emission  ETV
vector 312  FranciscoScenario.node[27].veinsmobility  acceleration  ETV
vector 313  FranciscoScenario.node[27].veinsmobility  co2emission  ETV
vector 323  FranciscoScenario.node[28].veinsmobility  acceleration  ETV
vector 324  FranciscoScenario.node[28].veinsmobility  co2emission  ETV
vector 334  FranciscoScenario.node[29].veinsmobility  acceleration  ETV
vector 335  FranciscoScenario.node[29].veinsmobility  co2emission  ETV
vector 345  FranciscoScenario.node[30].veinsmobility  acceleration  ETV
vector 346  FranciscoScenario.node[30].veinsmobility  co2emission  ETV
vector 356  FranciscoScenario.node[31].veinsmobility  acceleration  ETV
vector 357  FranciscoScenario.node[31].veinsmobility  co2emission  ETV
vector 367  FranciscoScenario.node[32].veinsmobility  acceleration  ETV
vector 368  FranciscoScenario.node[32].veinsmobility  co2emission  ETV
vector 378  FranciscoScenario.node[33].veinsmobility  acceleration  ETV
vector 379  FranciscoScenario.node[33].veinsmobility  co2emission  ETV
vector 389  FranciscoScenario.node[34].veinsmobility  acceleration  ETV
vector 390  FranciscoScenario.node[34].veinsmobility  co2emission  ETV
vector 400  FranciscoScenario.node[35].veinsmobility  acceleration  ETV
vector 401  FranciscoScenario.node[35].veinsmobility  co2emission  ETV
vector 411  FranciscoScenario.node[36].veinsmobility  acceleration  ETV
vector 412  FranciscoScenario.node[36].veinsmobility  co2emission  ETV
vector 422  FranciscoScenario.node[37].veinsmobility  acceleration  ETV
vector 423  FranciscoScenario.node[37].veinsmobility  co2emission  ETV
vector 433  FranciscoScenario.node[38].veinsmobility  acceleration  ETV
vector 434  FranciscoScenario.node[38].veinsmobility  co2emission  ETV
vector 444  FranciscoScenario.node[39].veinsmobility  acceleration  ETV
vector 445  FranciscoScenario.node[39].veinsmobility  co2emission  ETV
vector 455  FranciscoScenario.node[40].veinsmobility  acceleration  ETV
vector 456  FranciscoScenario.node[40].veinsmobility  co2emission  ETV
vector 466  FranciscoScenario.node[41].veinsmobility  acceleration  ETV
vector 467  FranciscoScenario.node[41].veinsmobility  co2emission  ETV
vector 477  FranciscoScenario.node[42].veinsmobility  acceleration  ETV
vector 478  FranciscoScenario.node[42].veinsmobility  co2emission  ETV
vector 488  FranciscoScenario.node[43].veinsmobility  acceleration  ETV
vector 489  FranciscoScenario.node[43].veinsmobility  co2emission  ETV
vector 499  FranciscoScenario.node[44].veinsmobility  acceleration  ETV
vector 500  FranciscoScenario.node[44].veinsmobility  co2emission  ETV
vector 510  FranciscoScenario.node[45].veinsmobility  acceleration  ETV
vector 511  FranciscoScenario.node[45].veinsmobility  co2emission  ETV
vector 521  FranciscoScenario.node[46].veinsmobility  acceleration  ETV
vector 522  FranciscoScenario.node[46].veinsmobility  co2emission  ETV
vector 532  FranciscoScenario.node[47].veinsmobility  acceleration  ETV