file 1014211 1411137939                                         
version 2
run Flooding-0-20140919-08:45:11-23995
attr configname Flooding
attr datetime 20140919-08:45:11
attr experiment Flooding
attr inifile omnetpp.ini
attr iterationvars ""
attr iterationvars2 $repetition=0
attr measurement ""
attr network src.modules.scenario.FranciscoScenario
attr processid 23995
attr repetition 0
attr replication #0
attr resultdir results
attr runnumber 0
attr seedset 0

vector 0  FranciscoScenario.manager  actualNumVehiclesSignal:vector  ETV
attr description  "Active vehicle count"
vector 11  FranciscoScenario.node[0].veinsmobility  posx  ETV
vector 12  FranciscoScenario.node[0].veinsmobility  posy  ETV
vector 13  FranciscoScenario.node[0].veinsmobility  speed  ETV
vector 14  FranciscoScenario.node[0].veinsmobility  acceleration  ETV
vector 15  FranciscoScenario.node[0].veinsmobility  co2emission  ETV
vector 22  FranciscoScenario.node[1].veinsmobility  posx  ETV
vector 23  FranciscoScenario.node[1].veinsmobility  posy  ETV
vector 33  FranciscoScenario.node[2].veinsmobility  posx  ETV
vector 34  FranciscoScenario.node[2].veinsmobility  posy  ETV
vector 44  FranciscoScenario.node[3].veinsmobility  posx  ETV
vector 45  FranciscoScenario.node[3].veinsmobility  posy  ETV
vector 55  FranciscoScenario.node[4].veinsmobility  posx  ETV
vector 56  FranciscoScenario.node[4].veinsmobility  posy  ETV
vector 66  FranciscoScenario.node[5].veinsmobility  posx  ETV
vector 67  FranciscoScenario.node[5].veinsmobility  posy  ETV
vector 77  FranciscoScenario.node[6].veinsmobility  posx  ETV
vector 78  FranciscoScenario.node[6].veinsmobility  posy  ETV
vector 88  FranciscoScenario.node[7].veinsmobility  posx  ETV
vector 89  FranciscoScenario.node[7].veinsmobility  posy  ETV
vector 99  FranciscoScenario.node[8].veinsmobility  posx  ETV
vector 100  FranciscoScenario.node[8].veinsmobility  posy  ETV
vector 110  FranciscoScenario.node[9].veinsmobility  posx  ETV
vector 111  FranciscoScenario.node[9].veinsmobility  posy  ETV
vector 121  FranciscoScenario.node[10].veinsmobility  posx  ETV
vector 122  FranciscoScenario.node[10].veinsmobility  posy  ETV
vector 132  FranciscoScenario.node[11].veinsmobility  posx  ETV
vector 133  FranciscoScenario.node[11].veinsmobility  posy  ETV
vector 143  FranciscoScenario.node[12].veinsmobility  posx  ETV
vector 144  FranciscoScenario.node[12].veinsmobility  posy  ETV
vector 154  FranciscoScenario.node[13].veinsmobility  posx  ETV
vector 155  FranciscoScenario.node[13].veinsmobility  posy  ETV
vector 165  FranciscoScenario.node[14].veinsmobility  posx  ETV
vector 166  FranciscoScenario.node[14].veinsmobility  posy  ETV
vector 176  FranciscoScenario.node[15].veinsmobility  posx  ETV
vector 177  FranciscoScenario.node[15].veinsmobility  posy  ETV
vector 187  FranciscoScenario.node[16].veinsmobility  posx  ETV
vector 188  FranciscoScenario.node[16].veinsmobility  posy  ETV
vector 198  FranciscoScenario.node[17].veinsmobility  posx  ETV
vector 199  FranciscoScenario.node[17].veinsmobility  posy  ETV
vector 209  FranciscoScenario.node[18].veinsmobility  posx  ETV
vector 210  FranciscoScenario.node[18].veinsmobility  posy  ETV
vector 220  FranciscoScenario.node[19].veinsmobility  posx  ETV
vector 221  FranciscoScenario.node[19].veinsmobility  posy  ETV
vector 231  FranciscoScenario.node[20].veinsmobility  posx  ETV
vector 232  FranciscoScenario.node[20].veinsmobility  posy  ETV
vector 242  FranciscoScenario.node[21].veinsmobility  posx  ETV
vector 243  FranciscoScenario.node[21].veinsmobility  posy  ETV
vector 253  FranciscoScenario.node[22].veinsmobility  posx  ETV
vector 254  FranciscoScenario.node[22].veinsmobility  posy  ETV
vector 264  FranciscoScenario.node[23].veinsmobility  posx  ETV
vector 265  FranciscoScenario.node[23].veinsmobility  posy  ETV
vector 275  FranciscoScenario.node[24].veinsmobility  posx  ETV
vector 276  FranciscoScenario.node[24].veinsmobility  posy  ETV
vector 286  FranciscoScenario.node[25].veinsmobility  posx  ETV
vector 287  FranciscoScenario.node[25].veinsmobility  posy  ETV
vector 297  FranciscoScenario.node[26].veinsmobility  posx  ETV
vector 298  FranciscoScenario.node[26].veinsmobility  posy  ETV
vector 308  FranciscoScenario.node[27].veinsmobility  posx  ETV
vector 309  FranciscoScenario.node[27].veinsmobility  posy  ETV
vector 319  FranciscoScenario.node[28].veinsmobility  posx  ETV
vector 320  FranciscoScenario.node[28].veinsmobility  posy  ETV
vector 330  FranciscoScenario.node[29].veinsmobility  posx  ETV
vector 331  FranciscoScenario.node[29].veinsmobility  posy  ETV
vector 341  FranciscoScenario.node[30].veinsmobility  posx  ETV
vector 342  FranciscoScenario.node[30].veinsmobility  posy  ETV
vector 352  FranciscoScenario.node[31].veinsmobility  posx  ETV
vector 353  FranciscoScenario.node[31].veinsmobility  posy  ETV
vector 363  FranciscoScenario.node[32].veinsmobility  posx  ETV
vector 364  FranciscoScenario.node[32].veinsmobility  posy  ETV
vector 374  FranciscoScenario.node[33].veinsmobility  posx  ETV
vector 375  FranciscoScenario.node[33].veinsmobility  posy  ETV
vector 385  FranciscoScenario.node[34].veinsmobility  posx  ETV
vector 386  FranciscoScenario.node[34].veinsmobility  posy  ETV
vector 396  FranciscoScenario.node[35].veinsmobility  posx  ETV
vector 397  FranciscoScenario.node[35].veinsmobility  posy  ETV
vector 407  FranciscoScenario.node[36].veinsmobility  posx  ETV
vector 408  FranciscoScenario.node[36].veinsmobility  posy  ETV
vector 418  FranciscoScenario.node[37].veinsmobility  posx  ETV
vector 419  FranciscoScenario.node[37].veinsmobility  posy  ETV
vector 429  FranciscoScenario.node[38].veinsmobility  posx  ETV
vector 430  FranciscoScenario.node[38].veinsmobility  posy  ETV
vector 440  FranciscoScenario.node[39].veinsmobility  posx  ETV
vector 441  FranciscoScenario.node[39].veinsmobility  posy  ETV
vector 451  FranciscoScenario.node[40].veinsmobility  posx  ETV
vector 452  FranciscoScenario.node[40].veinsmobility  posy  ETV
vector 462  FranciscoScenario.node[41].veinsmobility  posx  ETV
vector 463  FranciscoScenario.node[41].veinsmobility  posy  ETV
vector 473  FranciscoScenario.node[42].veinsmobility  posx  ETV
vector 474  FranciscoScenario.node[42].veinsmobility  posy  ETV
vector 484  FranciscoScenario.node[43].veinsmobility  posx  ETV
vector 485  FranciscoScenario.node[43].veinsmobility  posy  ETV
vector 495  FranciscoScenario.node[44].veinsmobility  posx  ETV
vector 496  FranciscoScenario.node[44].veinsmobility  posy  ETV
vector 506  FranciscoScenario.node[45].veinsmobility  posx  ETV
vector 507  FranciscoScenario.node[45].veinsmobility  posy  ETV
vector 517  FranciscoScenario.node[46].veinsmobility  posx  ETV
vector 518  FranciscoScenario.node[46].veinsmobility  posy  ETV
vector 528  FranciscoScenario.node[47].veinsmobility  posx  ETV
vector 529  FranciscoScenario.node[47].veinsmobility  posy  ETV
vector 539  FranciscoScenario.node[48].veinsmobility  posx  ETV
vector 540  FranciscoScenario.node[48].veinsmobility  posy  ETV
vector 550  FranciscoScenario.node[49].veinsmobility  posx  ETV
vector 551  FranciscoScenario.node[49].veinsmobility  posy  ETV
vector 561  FranciscoScenario.node[50].veinsmobility  posx  ETV
vector 562  FranciscoScenario.node[50].veinsmobility  posy  ETV
vector 572  FranciscoScenario.node[51].veinsmobility  posx  ETV
vector 573  FranciscoScenario.node[51].veinsmobility  posy  ETV
vector 583  FranciscoScenario.node[52].veinsmobility  posx  ETV
vector 584  FranciscoScenario.node[52].veinsmobility  posy  ETV
vector 594  FranciscoScenario.node[53].veinsmobility  posx  ETV
vector 595  FranciscoScenario.node[53].veinsmobility  posy  ETV
vector 24  FranciscoScenario.node[1].veinsmobility  speed  ETV
vector 25  FranciscoScenario.node[1].veinsmobility  acceleration  ETV
vector 26  FranciscoScenario.node[1].veinsmobility  co2emission  ETV
vector 35  FranciscoScenario.node[2].veinsmobility  speed  ETV
vector 46  FranciscoScenario.node[3].veinsmobility  speed  ETV
vector 57  FranciscoScenario.node[4].veinsmobility  speed  ETV
vector 68  FranciscoScenario.node[5].veinsmobility  speed  ETV
vector 79  FranciscoScenario.node[6].veinsmobility  speed  ETV
vector 90  FranciscoScenario.node[7].veinsmobility  speed  ETV
vector 101  FranciscoScenario.node[8].veinsmobility  speed  ETV
vector 112  FranciscoScenario.node[9].veinsmobility  speed  ETV
vector 123  FranciscoScenario.node[10].veinsmobility  speed  ETV
vector 134  FranciscoScenario.node[11].veinsmobility  speed  ETV
vector 145  FranciscoScenario.node[12].veinsmobility  speed  ETV
vector 156  FranciscoScenario.node[13].veinsmobility  speed  ETV
vector 167  FranciscoScenario.node[14].veinsmobility  speed  ETV
vector 178  FranciscoScenario.node[15].veinsmobility  speed  ETV
vector 189  FranciscoScenario.node[16].veinsmobility  speed  ETV
vector 200  FranciscoScenario.node[17].veinsmobility  speed  ETV
vector 211  FranciscoScenario.node[18].veinsmobility  speed  ETV
vector 222  FranciscoScenario.node[19].veinsmobility  speed  ETV
vector 233  FranciscoScenario.node[20].veinsmobility  speed  ETV
vector 244  FranciscoScenario.node[21].veinsmobility  speed  ETV
vector 255  FranciscoScenario.node[22].veinsmobility  speed  ETV
vector 266  FranciscoScenario.node[23].veinsmobility  speed  ETV
vector 277  FranciscoScenario.node[24].veinsmobility  speed  ETV
vector 288  FranciscoScenario.node[25].veinsmobility  speed  ETV
vector 299  FranciscoScenario.node[26].veinsmobility  speed  ETV
vector 310  FranciscoScenario.node[27].veinsmobility  speed  ETV
vector 321  FranciscoScenario.node[28].veinsmobility  speed  ETV
vector 332  FranciscoScenario.node[29].veinsmobility  speed  ETV
vector 343  FranciscoScenario.node[30].veinsmobility  speed  ETV
vector 354  FranciscoScenario.node[31].veinsmobility  speed  ETV
vector 365  FranciscoScenario.node[32].veinsmobility  speed  ETV
vector 376  FranciscoScenario.node[33].veinsmobility  speed  ETV
vector 387  FranciscoScenario.node[34].veinsmobility  speed  ETV
vector 398  FranciscoScenario.node[35].veinsmobility  speed  ETV
vector 409  FranciscoScenario.node[36].veinsmobility  speed  ETV
vector 420  FranciscoScenario.node[37].veinsmobility  speed  ETV
vector 431  FranciscoScenario.node[38].veinsmobility  speed  ETV
vector 442  FranciscoScenario.node[39].veinsmobility  speed  ETV
vector 453  FranciscoScenario.node[40].veinsmobility  speed  ETV
vector 464  FranciscoScenario.node[41].veinsmobility  speed  ETV
vector 475  FranciscoScenario.node[42].veinsmobility  speed  ETV
vector 486  FranciscoScenario.node[43].veinsmobility  speed  ETV
vector 497  FranciscoScenario.node[44].veinsmobility  speed  ETV
vector 508  FranciscoScenario.node[45].veinsmobility  speed  ETV
vector 519  FranciscoScenario.node[46].veinsmobility  speed  ETV
vector 530  FranciscoScenario.node[47].veinsmobility  speed  ETV
vector 541  FranciscoScenario.node[48].veinsmobility  speed  ETV
vector 552  FranciscoScenario.node[49].veinsmobility  speed  ETV
vector 563  FranciscoScenario.node[50].veinsmobility  speed  ETV
vector 574  FranciscoScenario.node[51].veinsmobility  speed  ETV
vector 585  FranciscoScenario.node[52].veinsmobility  speed  ETV
vector 596  FranciscoScenario.node[53].veinsmobility  speed  ETV
vector 36  FranciscoScenario.node[2].veinsmobility  acceleration  ETV
vector 37  FranciscoScenario.node[2].veinsmobility  co2emission  ETV
vector 47  FranciscoScenario.node[3].veinsmobility  acceleration  ETV
vector 48  FranciscoScenario.node[3].veinsmobility  co2emission  ETV
vector 58  FranciscoScenario.node[4].veinsmobility  acceleration  ETV
vector 59  FranciscoScenario.node[4].veinsmobility  co2emission  ETV
vector 69  FranciscoScenario.node[5].veinsmobility  acceleration  ETV
vector 70  FranciscoScenario.node[5].veinsmobility  co2emission  ETV
vector 80  FranciscoScenario.node[6].veinsmobility  acceleration  ETV
vector 81  FranciscoScenario.node[6].veinsmobility  co2emission  ETV
vector 91  FranciscoScenario.node[7].veinsmobility  acceleration  ETV
vector 92  FranciscoScenario.node[7].veinsmobility  co2emission  ETV
vector 102  FranciscoScenario.node[8].veinsmobility  acceleration  ETV
vector 103  FranciscoScenario.node[8].veinsmobility  co2emission  ETV
vector 113  FranciscoScenario.node[9].veinsmobility  acceleration  ETV
vector 114  FranciscoScenario.node[9].veinsmobility  co2emission  ETV
vector 124  FranciscoScenario.node[10].veinsmobility  acceleration  ETV
vector 125  FranciscoScenario.node[10].veinsmobility  co2emission  ETV
vector 135  FranciscoScenario.node[11].veinsmobility  acceleration  ETV
vector 136  FranciscoScenario.node[11].veinsmobility  co2emission  ETV
vector 146  FranciscoScenario.node[12].veinsmobility  acceleration  ETV
vector 147  FranciscoScenario.node[12].veinsmobility  co2emission  ETV
vector 157  FranciscoScenario.node[13].veinsmobility  acceleration  ETV
vector 158  FranciscoScenario.node[13].veinsmobility  co2emission  ETV
vector 168  FranciscoScenario.node[14].veinsmobility  acceleration  ETV
vector 169  FranciscoScenario.node[14].veinsmobility  co2emission  ETV
vector 179  FranciscoScenario.node[15].veinsmobility  acceleration  ETV
vector 180  FranciscoScenario.node[15].veinsmobility  co2emission  ETV
vector 190  FranciscoScenario.node[16].veinsmobility  acceleration  ETV
vector 191  FranciscoScenario.node[16].veinsmobility  co2emission  ETV
vector 201  FranciscoScenario.node[17].veinsmobility  acceleration  ETV
vector 202  FranciscoScenario.node[17].veinsmobility  co2emission  ETV
vector 212  FranciscoScenario.node[18].veinsmobility  acceleration  ETV
vector 213  FranciscoScenario.node[18].veinsmobility  co2emission  ETV
vector 223  FranciscoScenario.node[19].veinsmobility  acceleration  ETV
vector 224  FranciscoScenario.node[19].veinsmobility  co2emission  ETV
vector 234  FranciscoScenario.node[20].veinsmobility  acceleration  ETV
vector 235  FranciscoScenario.node[20].veinsmobility  co2emission  ETV
vector 245  FranciscoScenario.node[21].veinsmobility  acceleration  ETV
vector 246  FranciscoScenario.node[21].veinsmobility  co2emission  ETV
vector 256  FranciscoScenario.node[22].veinsmobility  acceleration  ETV
vector 257  FranciscoScenario.node[22].veinsmobility  co2emission  ETV
vector 267  FranciscoScenario.node[23].veinsmobility  acceleration  ETV
vector 268  FranciscoScenario.node[23].veinsmobility  co2emission  ETV
vector 278  FranciscoScenario.node[24].veinsmobility  acceleration  ETV
vector 279  FranciscoScenario.node[24].veinsmobility  co2emission  ETV
vector 289  FranciscoScenario.node[25].veinsmobility  acceleration  ETV
vector 290  FranciscoScenario.node[25].veinsmobility  co2emission  ETV
vector 300  FranciscoScenario.node[26].veinsmobility  acceleration  ETV
vector 301  FranciscoScenario.node[26].veinsmobility  co2emission  ETV
vector 311  FranciscoScenario.node[27].veinsmobility  acceleration  ETV
vector 312  FranciscoScenario.node[27].veinsmobility  co2emission  ETV
vector 322  FranciscoScenario.node[28].veinsmobility  acceleration  ETV
vector 323  FranciscoScenario.node[28].veinsmobility  co2emission  ETV
vector 333  FranciscoScenario.node[29].veinsmobility  acceleration  ETV
vector 334  FranciscoScenario.node[29].veinsmobility  co2emission  ETV
vector 344  FranciscoScenario.node[30].veinsmobility  acceleration  ETV
vector 345  FranciscoScenario.node[30].veinsmobility  co2emission  ETV
vector 355  FranciscoScenario.node[31].veinsmobility  acceleration  ETV
vector 356  FranciscoScenario.node[31].veinsmobility  co2emission  ETV
vector 366  FranciscoScenario.node[32].veinsmobility  acceleration  ETV
vector 367  FranciscoScenario.node[32].veinsmobility  co2emission  ETV
vector 377  FranciscoScenario.node[33].veinsmobility  acceleration  ETV
vector 378  FranciscoScenario.node[33].veinsmobility  co2emission  ETV
vector 388  FranciscoScenario.node[34].veinsmobility  acceleration  ETV
vector 389  FranciscoScenario.node[34].veinsmobility  co2emission  ETV
vector 399  FranciscoScenario.node[35].veinsmobility  acceleration  ETV
vector 400  FranciscoScenario.node[35].veinsmobility  co2emission  ETV
vector 410  FranciscoScenario.node[36].veinsmobility  acceleration  ETV
vector 411  FranciscoScenario.node[36].veinsmobility  co2emission  ETV
vector 421  FranciscoScenario.node[37].veinsmobility  acceleration  ETV
vector 422  FranciscoScenario.node[37].veinsmobility  co2emission  ETV
vector 432  FranciscoScenario.node[38].veinsmobility  acceleration  ETV
vector 433  FranciscoScenario.node[38].veinsmobility  co2emission  ETV
vector 443  FranciscoScenario.node[39].veinsmobility  acceleration  ETV
vector 444  FranciscoScenario.node[39].veinsmobility  co2emission  ETV
vector 454  FranciscoScenario.node[40].veinsmobility  acceleration  ETV
vector 455  FranciscoScenario.node[40].veinsmobility  co2emission  ETV
vector 465  FranciscoScenario.node[41].veinsmobility  acceleration  ETV
vector 466  FranciscoScenario.node[41].veinsmobility  co2emission  ETV
vector 476  FranciscoScenario.node[42].veinsmobility  acceleration  ETV
vector 477  FranciscoScenario.node[42].veinsmobility  co2emission  ETV
vector 487  FranciscoScenario.node[43].veinsmobility  acceleration  ETV
vector 488  FranciscoScenario.node[43].veinsmobility  co2emission  ETV
vector 498  FranciscoScenario.node[44].veinsmobility  acceleration  ETV
vector 499  FranciscoScenario.node[44].veinsmobility  co2emission  ETV
vector 509  FranciscoScenario.node[45].veinsmobility  acceleration  ETV
vector 510  FranciscoScenario.node[45].veinsmobility  co2emission  ETV
vector 520  FranciscoScenario.node[46].veinsmobility  acceleration  ETV
vector 521  FranciscoScenario.node[46].veinsmobility  co2emission  ETV
vector 531  FranciscoScenario.node[47].veinsmobility  acceleration  ETV
vector 532  FranciscoScenario.node[47].veinsmobility  co2emission  ETV
vector 542  FranciscoScenario.node[48].veinsmobility  acceleration  ETV
vector 543  FranciscoScenario.node[48].veinsmobility  co2emission  ETV
vector 553  FranciscoScenario.node[49].veinsmobility  acceleration  ETV
vector 554  FranciscoScenario.node[49].veinsmobility  co2emission  ETV
vector 564  FranciscoScenario.node[50].veinsmobility  acceleration  ETV
vector 565  FranciscoScenario.node[50].veinsmobility  co2emission  ETV
vector 575  FranciscoScenario.node[51].veinsmobility  acceleration  ETV
vector 576  FranciscoScenario.node[51].veinsmobility  co2emission  ETV
vector 586  FranciscoScenario.node[52].veinsmobility  acceleration  ETV
vector 587  FranciscoScenario.node[52].veinsmobility  co2emission  ETV
vector 597  FranciscoScenario.node[53].veinsmobility  acceleration  ETV
vector 598  FranciscoScenario.node[53].veinsmobility  co2emission  ETV
vector 605  FranciscoScenario.node[54].veinsmobility  posx  ETV
vector 606  FranciscoScenario.node[54].veinsmobility  posy  ETV
vector 607  FranciscoScenario.node[54].veinsmobility  speed  ETV
vector 608  FranciscoScenario.node[54].veinsmobility  acceleration  ETV
vector 609  FranciscoScenario.node[54].veinsmobility  co2emission  ETV
vector 616  FranciscoScenario.node[55].veinsmobility  posx  ETV
vector 617  FranciscoScenario.node[55].veinsmobility  posy  ETV
vector 627  FranciscoScenario.node[56].veinsmobility  posx  ETV
vector 628  FranciscoScenario.node[56].veinsmobility  posy  ETV
vector 638  FranciscoScenario.node[57].veinsmobility  posx  ETV
vector 639  FranciscoScenario.node[57].veinsmobility  posy  ETV
vector 649  FranciscoScenario.node[58].veinsmobility  posx  ETV
vector 650  FranciscoScenario.node[58].veinsmobility  posy  ETV
vector 660  FranciscoScenario.node[59].veinsmobility  posx  ETV
vector 661  FranciscoScenario.node[59].veinsmobility  posy  ETV
vector 671  FranciscoScenario.node[60].veinsmobility  posx  ETV
vector 672  FranciscoScenario.node[60].veinsmobility  posy  ETV
vector 682  FranciscoScenario.node[61].veinsmobility  posx  ETV
vector 683  FranciscoScenario.node[61].veinsmobility  posy  ETV
vector 693  FranciscoScenario.node[62].veinsmobility  posx  ETV
vector 694  FranciscoScenario.node[62].veinsmobility  posy  ETV
vector 704  FranciscoScenario.node[63].veinsmobility  posx  ETV
vector 705  FranciscoScenario.node[63].veinsmobility  posy  ETV
vector 715  FranciscoScenario.node[64].veinsmobility  posx  ETV
vector 716  FranciscoScenario.node[64].veinsmobility  posy  ETV
vector 618  FranciscoScenario.node[55].veinsmobility  speed  ETV
vector 619  FranciscoScenario.node[55].veinsmobility  acceleration  ETV
vector 620  FranciscoScenario.node[55].veinsmobility  co2emission  ETV
vector 629  FranciscoScenario.node[56].veinsmobility  speed  ETV
vector 640  FranciscoScenario.node[57].veinsmobility  speed  ETV
vector 651  FranciscoScenario.node[58].veinsmobility  speed  ETV
vector 662  FranciscoScenario.node[59].veinsmobility  speed  ETV
vector 673  FranciscoScenario.node[60].veinsmobility  speed  ETV
vector 684  FranciscoScenario.node[61].veinsmobility  speed  ETV
vector 695  FranciscoScenario.node[62].veinsmobility  speed  ETV
vector 706  FranciscoScenario.node[63].veinsmobility  speed  ETV
vector 717  FranciscoScenario.node[64].veinsmobility  speed  ETV
vector 726  FranciscoScenario.node[65].veinsmobility  posx  ETV
vector 727  FranciscoScenario.node[65].veinsmobility  posy  ETV
vector 737  FranciscoScenario.node[66].veinsmobility  posx  ETV
vector 738  FranciscoScenario.node[66].veinsmobility  posy  ETV
vector 630  FranciscoScenario.node[56].veinsmobility  acceleration  ETV
vector 631  FranciscoScenario.node[56].veinsmobility  co2emission  ETV
vector 641  FranciscoScenario.node[57].veinsmobility  acceleration  ETV
vector 642  FranciscoScenario.node[57].veinsmobility  co2emission  ETV
vector 652  FranciscoScenario.node[58].veinsmobility  acceleration  ETV
vector 653  FranciscoScenario.node[58].veinsmobility  co2emission  ETV
vector 663  FranciscoScenario.node[59].veinsmobility  acceleration  ETV
vector 664  FranciscoScenario.node[59].veinsmobility  co2emission  ETV
vector 674  FranciscoScenario.node[60].veinsmobility  acceleration  ETV
vector 675  FranciscoScenario.node[60].veinsmobility  co2emission  ETV
vector 685  FranciscoScenario.node[61].veinsmobility  acceleration  ETV
vector 686  FranciscoScenario.node[61].veinsmobility  co2emission  ETV
vector 696  FranciscoScenario.node[62].veinsmobility  acceleration  ETV
vector 697  FranciscoScenario.node[62].veinsmobility  co2emission  ETV
vector 707  FranciscoScenario.node[63].veinsmobility  acceleration  ETV
vector 708  FranciscoScenario.node[63].veinsmobility  co2emission  ETV
vector 718  FranciscoScenario.node[64].veinsmobility  acceleration  ETV
vector 719  FranciscoScenario.node[64].veinsmobility  co2emission  ETV
vector 728  FranciscoScenario.node[65].veinsmobility  speed  ETV
vector 739  FranciscoScenario.node[66].veinsmobility  speed  ETV
vector 729  FranciscoScenario.node[65].veinsmobility  acceleration  ETV
vector 730  FranciscoScenario.node[65].veinsmobility  co2emission  ETV
vector 740  FranciscoScenario.node[66].veinsmobility  acceleration  ETV
vector 741  FranciscoScenario.node[66].veinsmobility  co2emission  ETV
vector 748  FranciscoScenario.node[67].veinsmobility  posx  ETV
vector 749  FranciscoScenario.node[67].veinsmobility  posy  ETV
vector 750  FranciscoScenario.node[67].veinsmobility  speed  ETV
vector 751  FranciscoScenario.node[67].veinsmobility  acceleration  ETV
vector 752  FranciscoScenario.node[67].veinsmobility  co2emission  ETV
vector 759  FranciscoScenario.node[68].veinsmobility  posx  ETV
vector 760  FranciscoScenario.node[68].veinsmobility  posy  ETV
vector 761  FranciscoScenario.node[68].veinsmobility  speed  ETV
vector 762  FranciscoScenario.node[68].veinsmobility  acceleration  ETV
vector 763  FranciscoScenario.node[68].veinsmobility  co2emission  ETV
vector 770  FranciscoScenario.node[69].veinsmobility  posx  ETV
vector 771  FranciscoScenario.node[69].veinsmobility  posy  ETV
vector 772  FranciscoScenario.node[69].veinsmobility  speed  ETV
vector 773  FranciscoScenario.node[69].veinsmobility  acceleration  ETV
vector 774  FranciscoScenario.node[69].veinsmobility  co2emission  ETV
vector 781  FranciscoScenario.node[70].veinsmobility  posx  ETV
vector 782  FranciscoScenario.node[70].veinsmobility  posy  ETV
vector 792  FranciscoScenario.node[71].veinsmobility  posx  ETV
vector 793  FranciscoScenario.node[71].veinsmobility  posy  ETV
vector 783  FranciscoScenario.node[70].veinsmobility  speed  ETV
vector 784  FranciscoScenario.node[70].veinsmobility  acceleration  ETV
vector 785  FranciscoScenario.node[70].veinsmobility  co2emission  ETV
vector 794  FranciscoScenario.node[71].veinsmobility  speed  ETV
vector 795  FranciscoScenario.node[71].veinsmobility  acceleration  ETV
vector 796  FranciscoScenario.node[71].veinsmobility  co2emission  ETV
vector 803  FranciscoScenario.node[72].veinsmobility  posx  ETV
vector 804  FranciscoScenario.node[72].veinsmobility  posy  ETV
vector 805  FranciscoScenario.node[72].veinsmobility  speed  ETV
vector 806  FranciscoScenario.node[72].veinsmobility  acceleration  ETV
vector 807  FranciscoScenario.node[72].veinsmobility  co2emission  ETV
vector 814  FranciscoScenario.node[73].veinsmobility  posx  ETV
vector 815  FranciscoScenario.node[73].veinsmobility  posy  ETV
vector 816  FranciscoScenario.node[73].veinsmobility  speed  ETV
vector 817  FranciscoScenario.node[73].veinsmobility  acceleration  ETV
vector 818  FranciscoScenario.node[73].veinsmobility  co2emission  ETV
vector 825  FranciscoScenario.node[74].veinsmobility  posx  ETV
vector 826  FranciscoScenario.node[74].veinsmobility  posy  ETV
vector 827  FranciscoScenario.node[74].veinsmobility  speed  ETV
vector 828  FranciscoScenario.node[74].veinsmobility  acceleration  ETV
vector 829  FranciscoScenario.node[74].veinsmobility  co2emission  ETV
vector 836  FranciscoScenario.node[75].veinsmobility  posx  ETV
vector 837  FranciscoScenario.node[75].veinsmobility  posy  ETV
vector 838  FranciscoScenario.node[75].veinsmobility  speed  ETV
vector 839  FranciscoScenario.node[75].veinsmobility  acceleration  ETV
vector 840  FranciscoScenario.node[75].veinsmobility  co2emission  ETV
vector 847  FranciscoScenario.node[76].veinsmobility  posx  ETV
vector 848  FranciscoScenario.node[76].veinsmobility  posy  ETV
vector 849  FranciscoScenario.node[76].veinsmobility  speed  ETV
vector 850  FranciscoScenario.node[76].veinsmobility  acceleration  ETV
vector 851  FranciscoScenario.node[76].veinsmobility  co2emission  ETV
vector 858  FranciscoScenario.node[77].veinsmobility  posx  ETV
vector 859  FranciscoScenario.node[77].veinsmobility  posy  ETV
vector 860  FranciscoScenario.node[77].veinsmobility  speed  ETV
vector 861  FranciscoScenario.node[77].veinsmobility  acceleration  ETV
vector 862  FranciscoScenario.node[77].veinsmobility  co2emission  ETV
vector 869  FranciscoScenario.node[78].veinsmobility  posx  ETV
vector 870  FranciscoScenario.node[78].veinsmobility  posy  ETV
vector 871  FranciscoScenario.node[78].veinsmobility  speed  ETV
vector 872  FranciscoScenario.node[78].veinsmobility  acceleration  ETV
vector 873  FranciscoScenario.node[78].veinsmobility  co2emission  ETV
vector 880  FranciscoScenario.node[79].veinsmobility  posx  ETV
vector 881  FranciscoScenario.node[79].veinsmobility  posy  ETV
vector 882  FranciscoScenario.node[79].veinsmobility  speed  ETV
vector 883  FranciscoScenario.node[79].veinsmobility  acceleration  ETV
vector 884  FranciscoScenario.node[79].veinsmobility  co2emission  ETV
vector 891  FranciscoScenario.node[80].veinsmobility  posx  ETV
vector 892  FranciscoScenario.node[80].veinsmobility  posy  ETV
vector 2  FranciscoScenario.stats  allNewWarningsReceivedSignal:vector  ETV
attr description  "All New Warnings Received"
vector 893  FranciscoScenario.node[80].veinsmobility  speed  ETV
vector 544  FranciscoScenario.node[49].appl  warningReceivedSignal:vector  ETV
attr description  "Warning Received"
vector 546  FranciscoScenario.node[49].appl  messageReceivedSignal:vector  ETV
attr description  "Message Received"
vector 3  FranciscoScenario.stats  allWarningsReceivedSignal:vector  ETV
attr description  "All Warnings Received"
vector 4  FranciscoScenario.stats  allMessagesReceivedSignal:vector  ETV
attr description  "All Messages Received"
vector 547  FranciscoScenario.node[49].appl  newWarningReceivedSignal:vector  ETV
attr description  "New Warning Received"
vector 49  FranciscoScenario.node[4].appl  warningReceivedSignal:vector  ETV
attr description  "Warning Received"
vector 51  FranciscoScenario.node[4].appl  messageReceivedSignal:vector  ETV
attr description  "Message Received"
vector 52  FranciscoScenario.node[4].appl  newWarningReceivedSignal:vector  ETV
attr description  "New Warning Received"
vector 786  FranciscoScenario.node[71].appl  warningReceivedSignal:vector  ETV
attr description  "Warning Received"
vector 788  FranciscoScenario.node[71].appl  messageReceivedSignal:vector  ETV
attr description  "Message Received"
vector 789  FranciscoScenario.node[71].appl  newWarningReceivedSignal:vector  ETV
attr description  "New Warning Received"
vector 159  FranciscoScenario.node[14].appl  warningReceivedSignal:vector  ETV
attr description  "Warning Received"
vector 161  FranciscoScenario.node[14].appl  messageReceivedSignal:vector  ETV
attr description  "Message Received"
vector 162  FranciscoScenario.node[14].appl  newWarningReceivedSignal:vector  ETV
attr description  "New Warning Received"
vector 489  FranciscoScenario.node[44].appl  warningReceivedSignal:vector  ETV
attr description  "Warning Received"
vector 491  FranciscoScenario.node[44].appl  messageReceivedSignal:vector  ETV
attr description  "Message Received"
vector 492  FranciscoScenario.node[44].appl  newWarningReceivedSignal:vector  ETV
attr description  "New Warning Received"
vector 236  FranciscoScenario.node[21].appl  warningReceivedSignal:vector  ETV
attr description  "Warning Received"
vector 238  FranciscoScenario.node[21].appl  messageReceivedSignal:vector  ETV
attr description  "Message Received"
vector 239  FranciscoScenario.node[21].appl  newWarningReceivedSignal:vector  ETV