file 793248 1407114029                                          
version 2
run nodebug-0-20140803-18:59:32-14655
attr configname nodebug
attr datetime 20140803-18:59:32
attr experiment nodebug
attr inifile omnetpp.ini
attr iterationvars ""
attr iterationvars2 $repetition=0
attr measurement ""
attr network src.modules.scenario.FranciscoScenario
attr processid 14655
attr repetition 0
attr replication #0
attr resultdir results
attr runnumber 0
attr seedset 0

vector 12  FranciscoScenario.node[0].veinsmobility  posx  ETV
vector 13  FranciscoScenario.node[0].veinsmobility  posy  ETV
vector 14  FranciscoScenario.node[0].veinsmobility  speed  ETV
vector 15  FranciscoScenario.node[0].veinsmobility  acceleration  ETV
vector 16  FranciscoScenario.node[0].veinsmobility  co2emission  ETV
vector 23  FranciscoScenario.node[1].veinsmobility  posx  ETV
vector 24  FranciscoScenario.node[1].veinsmobility  posy  ETV
vector 34  FranciscoScenario.node[2].veinsmobility  posx  ETV
vector 35  FranciscoScenario.node[2].veinsmobility  posy  ETV
vector 45  FranciscoScenario.node[3].veinsmobility  posx  ETV
vector 46  FranciscoScenario.node[3].veinsmobility  posy  ETV
vector 56  FranciscoScenario.node[4].veinsmobility  posx  ETV
vector 57  FranciscoScenario.node[4].veinsmobility  posy  ETV
vector 67  FranciscoScenario.node[5].veinsmobility  posx  ETV
vector 68  FranciscoScenario.node[5].veinsmobility  posy  ETV
vector 78  FranciscoScenario.node[6].veinsmobility  posx  ETV
vector 79  FranciscoScenario.node[6].veinsmobility  posy  ETV
vector 89  FranciscoScenario.node[7].veinsmobility  posx  ETV
vector 90  FranciscoScenario.node[7].veinsmobility  posy  ETV
vector 100  FranciscoScenario.node[8].veinsmobility  posx  ETV
vector 101  FranciscoScenario.node[8].veinsmobility  posy  ETV
vector 111  FranciscoScenario.node[9].veinsmobility  posx  ETV
vector 112  FranciscoScenario.node[9].veinsmobility  posy  ETV
vector 122  FranciscoScenario.node[10].veinsmobility  posx  ETV
vector 123  FranciscoScenario.node[10].veinsmobility  posy  ETV
vector 133  FranciscoScenario.node[11].veinsmobility  posx  ETV
vector 134  FranciscoScenario.node[11].veinsmobility  posy  ETV
vector 144  FranciscoScenario.node[12].veinsmobility  posx  ETV
vector 145  FranciscoScenario.node[12].veinsmobility  posy  ETV
vector 155  FranciscoScenario.node[13].veinsmobility  posx  ETV
vector 156  FranciscoScenario.node[13].veinsmobility  posy  ETV
vector 166  FranciscoScenario.node[14].veinsmobility  posx  ETV
vector 167  FranciscoScenario.node[14].veinsmobility  posy  ETV
vector 177  FranciscoScenario.node[15].veinsmobility  posx  ETV
vector 178  FranciscoScenario.node[15].veinsmobility  posy  ETV
vector 188  FranciscoScenario.node[16].veinsmobility  posx  ETV
vector 189  FranciscoScenario.node[16].veinsmobility  posy  ETV
vector 199  FranciscoScenario.node[17].veinsmobility  posx  ETV
vector 200  FranciscoScenario.node[17].veinsmobility  posy  ETV
vector 210  FranciscoScenario.node[18].veinsmobility  posx  ETV
vector 211  FranciscoScenario.node[18].veinsmobility  posy  ETV
vector 25  FranciscoScenario.node[1].veinsmobility  speed  ETV
vector 26  FranciscoScenario.node[1].veinsmobility  acceleration  ETV
vector 27  FranciscoScenario.node[1].veinsmobility  co2emission  ETV
vector 36  FranciscoScenario.node[2].veinsmobility  speed  ETV
vector 47  FranciscoScenario.node[3].veinsmobility  speed  ETV
vector 58  FranciscoScenario.node[4].veinsmobility  speed  ETV
vector 69  FranciscoScenario.node[5].veinsmobility  speed  ETV
vector 80  FranciscoScenario.node[6].veinsmobility  speed  ETV
vector 91  FranciscoScenario.node[7].veinsmobility  speed  ETV
vector 102  FranciscoScenario.node[8].veinsmobility  speed  ETV
vector 113  FranciscoScenario.node[9].veinsmobility  speed  ETV
vector 124  FranciscoScenario.node[10].veinsmobility  speed  ETV
vector 135  FranciscoScenario.node[11].veinsmobility  speed  ETV
vector 146  FranciscoScenario.node[12].veinsmobility  speed  ETV
vector 157  FranciscoScenario.node[13].veinsmobility  speed  ETV
vector 168  FranciscoScenario.node[14].veinsmobility  speed  ETV
vector 179  FranciscoScenario.node[15].veinsmobility  speed  ETV
vector 190  FranciscoScenario.node[16].veinsmobility  speed  ETV
vector 201  FranciscoScenario.node[17].veinsmobility  speed  ETV
vector 212  FranciscoScenario.node[18].veinsmobility  speed  ETV
vector 37  FranciscoScenario.node[2].veinsmobility  acceleration  ETV
vector 38  FranciscoScenario.node[2].veinsmobility  co2emission  ETV
vector 48  FranciscoScenario.node[3].veinsmobility  acceleration  ETV
vector 49  FranciscoScenario.node[3].veinsmobility  co2emission  ETV
vector 59  FranciscoScenario.node[4].veinsmobility  acceleration  ETV
vector 60  FranciscoScenario.node[4].veinsmobility  co2emission  ETV
vector 70  FranciscoScenario.node[5].veinsmobility  acceleration  ETV
vector 71  FranciscoScenario.node[5].veinsmobility  co2emission  ETV
vector 81  FranciscoScenario.node[6].veinsmobility  acceleration  ETV
vector 82  FranciscoScenario.node[6].veinsmobility  co2emission  ETV
vector 92  FranciscoScenario.node[7].veinsmobility  acceleration  ETV
vector 93  FranciscoScenario.node[7].veinsmobility  co2emission  ETV
vector 103  FranciscoScenario.node[8].veinsmobility  acceleration  ETV
vector 104  FranciscoScenario.node[8].veinsmobility  co2emission  ETV
vector 114  FranciscoScenario.node[9].veinsmobility  acceleration  ETV
vector 115  FranciscoScenario.node[9].veinsmobility  co2emission  ETV
vector 125  FranciscoScenario.node[10].veinsmobility  acceleration  ETV
vector 126  FranciscoScenario.node[10].veinsmobility  co2emission  ETV
vector 136  FranciscoScenario.node[11].veinsmobility  acceleration  ETV
vector 137  FranciscoScenario.node[11].veinsmobility  co2emission  ETV
vector 147  FranciscoScenario.node[12].veinsmobility  acceleration  ETV
vector 148  FranciscoScenario.node[12].veinsmobility  co2emission  ETV
vector 158  FranciscoScenario.node[13].veinsmobility  acceleration  ETV
vector 159  FranciscoScenario.node[13].veinsmobility  co2emission  ETV
vector 169  FranciscoScenario.node[14].veinsmobility  acceleration  ETV
vector 170  FranciscoScenario.node[14].veinsmobility  co2emission  ETV
vector 180  FranciscoScenario.node[15].veinsmobility  acceleration  ETV
vector 181  FranciscoScenario.node[15].veinsmobility  co2emission  ETV
vector 191  FranciscoScenario.node[16].veinsmobility  acceleration  ETV
vector 192  FranciscoScenario.node[16].veinsmobility  co2emission  ETV
vector 202  FranciscoScenario.node[17].veinsmobility  acceleration  ETV
vector 203  FranciscoScenario.node[17].veinsmobility  co2emission  ETV
vector 213  FranciscoScenario.node[18].veinsmobility  acceleration  ETV
vector 214  FranciscoScenario.node[18].veinsmobility  co2emission  ETV
vector 221  FranciscoScenario.node[19].veinsmobility  posx  ETV
vector 222  FranciscoScenario.node[19].veinsmobility  posy  ETV
vector 223  FranciscoScenario.node[19].veinsmobility  speed  ETV
vector 224  FranciscoScenario.node[19].veinsmobility  acceleration  ETV
vector 225  FranciscoScenario.node[19].veinsmobility  co2emission  ETV
vector 232  FranciscoScenario.node[20].veinsmobility  posx  ETV
vector 233  FranciscoScenario.node[20].veinsmobility  posy  ETV
vector 243  FranciscoScenario.node[21].veinsmobility  posx  ETV
vector 244  FranciscoScenario.node[21].veinsmobility  posy  ETV
vector 234  FranciscoScenario.node[20].veinsmobility  speed  ETV
vector 245  FranciscoScenario.node[21].veinsmobility  speed  ETV
vector 235  FranciscoScenario.node[20].veinsmobility  acceleration  ETV
vector 236  FranciscoScenario.node[20].veinsmobility  co2emission  ETV
vector 246  FranciscoScenario.node[21].veinsmobility  acceleration  ETV
vector 247  FranciscoScenario.node[21].veinsmobility  co2emission  ETV
vector 254  FranciscoScenario.node[22].veinsmobility  posx  ETV
vector 255  FranciscoScenario.node[22].veinsmobility  posy  ETV
vector 256  FranciscoScenario.node[22].veinsmobility  speed  ETV
vector 257  FranciscoScenario.node[22].veinsmobility  acceleration  ETV
vector 258  FranciscoScenario.node[22].veinsmobility  co2emission  ETV
vector 265  FranciscoScenario.node[23].veinsmobility  posx  ETV
vector 266  FranciscoScenario.node[23].veinsmobility  posy  ETV
vector 267  FranciscoScenario.node[23].veinsmobility  speed  ETV
vector 268  FranciscoScenario.node[23].veinsmobility  acceleration  ETV
vector 269  FranciscoScenario.node[23].veinsmobility  co2emission  ETV
vector 276  FranciscoScenario.node[24].veinsmobility  posx  ETV
vector 277  FranciscoScenario.node[24].veinsmobility  posy  ETV
vector 278  FranciscoScenario.node[24].veinsmobility  speed  ETV
vector 279  FranciscoScenario.node[24].veinsmobility  acceleration  ETV
vector 280  FranciscoScenario.node[24].veinsmobility  co2emission  ETV
vector 287  FranciscoScenario.node[25].veinsmobility  posx  ETV
vector 288  FranciscoScenario.node[25].veinsmobility  posy  ETV
vector 289  FranciscoScenario.node[25].veinsmobility  speed  ETV
vector 290  FranciscoScenario.node[25].veinsmobility  acceleration  ETV
vector 291  FranciscoScenario.node[25].veinsmobility  co2emission  ETV
vector 298  FranciscoScenario.node[26].veinsmobility  posx  ETV
vector 299  FranciscoScenario.node[26].veinsmobility  posy  ETV
vector 300  FranciscoScenario.node[26].veinsmobility  speed  ETV
vector 309  FranciscoScenario.node[27].veinsmobility  posx  ETV
vector 310  FranciscoScenario.node[27].veinsmobility  posy  ETV
vector 301  FranciscoScenario.node[26].veinsmobility  acceleration  ETV
vector 302  FranciscoScenario.node[26].veinsmobility  co2emission  ETV
vector 311  FranciscoScenario.node[27].veinsmobility  speed  ETV
vector 312  FranciscoScenario.node[27].veinsmobility  acceleration  ETV
vector 313  FranciscoScenario.node[27].veinsmobility  co2emission  ETV
vector 320  FranciscoScenario.node[28].veinsmobility  posx  ETV
vector 321  FranciscoScenario.node[28].veinsmobility  posy  ETV
vector 322  FranciscoScenario.node[28].veinsmobility  speed  ETV
vector 323  FranciscoScenario.node[28].veinsmobility  acceleration  ETV
vector 324  FranciscoScenario.node[28].veinsmobility  co2emission  ETV
vector 331  FranciscoScenario.node[29].veinsmobility  posx  ETV
vector 332  FranciscoScenario.node[29].veinsmobility  posy  ETV
vector 333  FranciscoScenario.node[29].veinsmobility  speed  ETV
vector 334  FranciscoScenario.node[29].veinsmobility  acceleration  ETV
vector 335  FranciscoScenario.node[29].veinsmobility  co2emission  ETV
vector 342  FranciscoScenario.node[30].veinsmobility  posx  ETV
vector 343  FranciscoScenario.node[30].veinsmobility  posy  ETV
vector 344  FranciscoScenario.node[30].veinsmobility  speed  ETV
vector 345  FranciscoScenario.node[30].veinsmobility  acceleration  ETV
vector 346  FranciscoScenario.node[30].veinsmobility  co2emission  ETV
vector 353  FranciscoScenario.node[31].veinsmobility  posx  ETV
vector 354  FranciscoScenario.node[31].veinsmobility  posy  ETV
vector 355  FranciscoScenario.node[31].veinsmobility  speed  ETV
vector 356  FranciscoScenario.node[31].veinsmobility  acceleration  ETV
vector 357  FranciscoScenario.node[31].veinsmobility  co2emission  ETV
vector 364  FranciscoScenario.node[32].veinsmobility  posx  ETV
vector 365  FranciscoScenario.node[32].veinsmobility  posy  ETV
vector 366  FranciscoScenario.node[32].veinsmobility  speed  ETV
vector 367  FranciscoScenario.node[32].veinsmobility  acceleration  ETV
vector 368  FranciscoScenario.node[32].veinsmobility  co2emission  ETV
vector 375  FranciscoScenario.node[33].veinsmobility  posx  ETV
vector 376  FranciscoScenario.node[33].veinsmobility  posy  ETV
vector 377  FranciscoScenario.node[33].veinsmobility  speed  ETV
vector 378  FranciscoScenario.node[33].veinsmobility  acceleration  ETV
vector 379  FranciscoScenario.node[33].veinsmobility  co2emission  ETV
vector 386  FranciscoScenario.node[34].veinsmobility  posx  ETV
vector 387  FranciscoScenario.node[34].veinsmobility  posy  ETV
vector 388  FranciscoScenario.node[34].veinsmobility  speed  ETV
vector 389  FranciscoScenario.node[34].veinsmobility  acceleration  ETV
vector 390  FranciscoScenario.node[34].veinsmobility  co2emission  ETV
vector 397  FranciscoScenario.node[35].veinsmobility  posx  ETV
vector 398  FranciscoScenario.node[35].veinsmobility  posy  ETV
vector 399  FranciscoScenario.node[35].veinsmobility  speed  ETV
vector 400  FranciscoScenario.node[35].veinsmobility  acceleration  ETV
vector 401  FranciscoScenario.node[35].veinsmobility  co2emission  ETV
vector 408  FranciscoScenario.node[36].veinsmobility  posx  ETV
vector 409  FranciscoScenario.node[36].veinsmobility  posy  ETV
vector 410  FranciscoScenario.node[36].veinsmobility  speed  ETV
vector 411  FranciscoScenario.node[36].veinsmobility  acceleration  ETV
vector 412  FranciscoScenario.node[36].veinsmobility  co2emission  ETV
vector 419  FranciscoScenario.node[37].veinsmobility  posx  ETV
vector 420  FranciscoScenario.node[37].veinsmobility  posy  ETV
vector 421  FranciscoScenario.node[37].veinsmobility  speed  ETV
vector 422  FranciscoScenario.node[37].veinsmobility  acceleration  ETV
vector 423  FranciscoScenario.node[37].veinsmobility  co2emission  ETV
vector 430  FranciscoScenario.node[38].veinsmobility  posx  ETV
vector 431  FranciscoScenario.node[38].veinsmobility  posy  ETV
vector 432  FranciscoScenario.node[38].veinsmobility  speed  ETV
vector 4  FranciscoScenario.stats  accidentStartTimeSignal:vector  ETV
attr description  "Accident Start Time"
vector 1  FranciscoScenario.stats  allNewWarningsReceivedSignal:vector  ETV
attr description  "All New Warnings Received"
vector 5  FranciscoScenario.stats  percentOfInformedVehiclesSignal:vector  ETV
attr description  "Percent Of Informed Vehicles"
vector 433  FranciscoScenario.node[38].veinsmobility  acceleration  ETV
vector 434  FranciscoScenario.node[38].veinsmobility  co2emission  ETV
vector 336  FranciscoScenario.node[30].appl  warningReceivedSignal:vector  ETV
attr description  "Warning Received"
vector 338  FranciscoScenario.node[30].appl  messageReceivedSignal:vector  ETV
attr description  "Message Received"
vector 2  FranciscoScenario.stats  allWarningsReceivedSignal:vector  ETV
attr description  "All Warnings Received"
vector 3  FranciscoScenario.stats  allMessagesReceivedSignal:vector  ETV
attr description  "All Messages Received"
vector 339  FranciscoScenario.node[30].appl  newWarningReceivedSignal:vector  ETV
attr description  "New Warning Received"
vector 413  FranciscoScenario.node[37].appl  warningReceivedSignal:vector  ETV
attr description  "Warning Received"
vector 415  FranciscoScenario.node[37].appl  messageReceivedSignal:vector  ETV
attr description  "Message Received"
vector 416  FranciscoScenario.node[37].appl  newWarningReceivedSignal:vector  ETV
attr description  "New Warning Received"
vector 50  FranciscoScenario.node[4].appl  warningReceivedSignal:vector  ETV
attr description  "Warning Received"
vector 52  FranciscoScenario.node[4].appl  messageReceivedSignal:vector  ETV
attr description  "Message Received"
vector 53  FranciscoScenario.node[4].appl  newWarningReceivedSignal:vector  ETV
attr description  "New Warning Received"
vector 171  FranciscoScenario.node[15].appl  warningReceivedSignal:vector  ETV
attr description  "Warning Received"
vector 173  FranciscoScenario.node[15].appl  messageReceivedSignal:vector  ETV
attr description  "Message Received"
vector 174  FranciscoScenario.node[15].appl  newWarningReceivedSignal:vector  ETV
attr description  "New Warning Received"
vector 237  FranciscoScenario.node[21].appl  warningReceivedSignal:vector  ETV
attr description  "Warning Received"
vector 239  FranciscoScenario.node[21].appl  messageReceivedSignal:vector  ETV
attr description  "Message Received"
vector 240  FranciscoScenario.node[21].appl  newWarningReceivedSignal:vector  ETV
attr description  "New Warning Received"
vector 83  FranciscoScenario.node[7].appl  warningReceivedSignal:vector  ETV
attr description  "Warning Received"
vector 85  FranciscoScenario.node[7].appl  messageReceivedSignal:vector  ETV
attr description  "Message Received"
vector 86  FranciscoScenario.node[7].appl  newWarningReceivedSignal:vector  ETV
attr description  "New Warning Received"
vector 347  FranciscoScenario.node[31].appl  warningReceivedSignal:vector  ETV
attr description  "Warning Received"
vector 349  FranciscoScenario.node[31].appl  messageReceivedSignal:vector  ETV
attr description  "Message Received"
vector 350  FranciscoScenario.node[31].appl  newWarningReceivedSignal:vector  ETV
attr description  "New Warning Received"
vector 204  FranciscoScenario.node[18].appl  warningReceivedSignal:vector  ETV
attr description  "Warning Received"
vector 206  FranciscoScenario.node[18].appl  messageReceivedSignal:vector  ETV
attr description  "Message Received"
vector 207  FranciscoScenario.node[18].appl  newWarningReceivedSignal:vector  ETV
attr description  "New Warning Received"
vector 226  FranciscoScenario.node[20].appl  warningReceivedSignal:vector  ETV
attr description  "Warning Received"
vector 228  FranciscoScenario.node[20].appl  messageReceivedSignal:vector  ETV
attr description  "Message Received"
vector 229  FranciscoScenario.node[20].appl  newWarningReceivedSignal:vector  ETV
attr description  "New Warning Received"
vector 314  FranciscoScenario.node[28].appl  warningReceivedSignal:vector  ETV
attr description  "Warning Received"
vector 316  FranciscoScenario.node[28].appl  messageReceivedSignal:vector  ETV
attr description  "Message Received"
vector 317  FranciscoScenario.node[28].appl  newWarningReceivedSignal:vector  ETV
attr description  "New Warning Received"
vector 215  FranciscoScenario.node[19].appl  warningReceivedSignal:vector  ETV
attr description  "Warning Received"
vector 217  FranciscoScenario.node[19].appl  messageReceivedSignal:vector  ETV
attr description  "Message Received"
vector 218  FranciscoScenario.node[19].appl  newWarningReceivedSignal:vector  ETV
attr description  "New Warning Received"
vector 259  FranciscoScenario.node[23].appl  warningReceivedSignal:vector  ETV
attr description  "Warning Received"
vector 261  FranciscoScenario.node[23].appl  messageReceivedSignal:vector  ETV
attr description  "Message Received"
vector 262  FranciscoScenario.node[23].appl  newWarningReceivedSignal:vector  ETV
attr description  "New Warning Received"
vector 160  FranciscoScenario.node[14].appl  warningReceivedSignal:vector  ETV
attr description  "Warning Received"
vector 162  FranciscoScenario.node[14].appl  messageReceivedSignal:vector  ETV
attr description  "Message Received"
vector 163  FranciscoScenario.node[14].appl  newWarningReceivedSignal:vector  ETV
attr description  "New Warning Received"
vector 281  FranciscoScenario.node[25].appl  warningReceivedSignal:vector  ETV
attr description  "Warning Received"
vector 283  FranciscoScenario.node[25].appl  messageReceivedSignal:vector  ETV
attr description  "Message Received"
vector 284  FranciscoScenario.node[25].appl  newWarningReceivedSignal:vector  ETV
attr description  "New Warning Received"
vector 116  FranciscoScenario.node[10].appl  warningReceivedSignal:vector  ETV
attr description  "Warning Received"
vector 118  FranciscoScenario.node[10].appl  messageReceivedSignal:vector  ETV
attr description  "Message Received"
vector 119  FranciscoScenario.node[10].appl  newWarningReceivedSignal:vector  ETV
attr description  "New Warning Received"
vector 127  FranciscoScenario.node[11].appl  warningReceivedSignal:vector  ETV
attr description  "Warning Received"
vector 129  FranciscoScenario.node[11].appl  messageReceivedSignal:vector  ETV
attr description  "Message Received"
vector 130  FranciscoScenario.node[11].appl  newWarningReceivedSignal:vector  ETV
attr description  "New Warning Received"
vector 39  FranciscoScenario.node[3].appl  warningReceivedSignal:vector  ETV
attr description  "Warning Received"
vector 41  FranciscoScenario.node[3].appl  messageReceivedSignal:vector  ETV
attr description  "Message Received"
vector 42  FranciscoScenario.node[3].appl  newWarningReceivedSignal:vector  ETV
attr description  "New Warning Received"
vector 6  FranciscoScenario.node[0].appl  warningReceivedSignal:vector  ETV
attr description  "Warning Received"
vector 8  FranciscoScenario.node[0].appl  messageReceivedSignal:vector  ETV
attr description  "Message Received"
vector 9  FranciscoScenario.node[0].appl  newWarningReceivedSignal:vector  ETV
attr description  "New Warning Received"
vector 292  FranciscoScenario.node[26].appl  warningReceivedSignal:vector  ETV
attr description  "Warning Received"
vector 294  FranciscoScenario.node[26].appl  messageReceivedSignal:vector  ETV
attr description  "Message Received"
vector 295  FranciscoScenario.node[26].appl  newWarningReceivedSignal:vector  ETV
attr description  "New Warning Received"
vector 105  FranciscoScenario.node[9].appl  warningReceivedSignal:vector  ETV
attr description  "Warning Received"
vector 107  FranciscoScenario.node[9].appl  messageReceivedSignal:vector  ETV
attr description  "Message Received"
vector 108  FranciscoScenario.node[9].appl  newWarningReceivedSignal:vector  ETV
attr description  "New Warning Received"
vector 270  FranciscoScenario.node[24].appl  warningReceivedSignal:vector  ETV
attr description  "Warning Received"
vector 272  FranciscoScenario.node[24].appl  messageReceivedSignal:vector  ETV
attr description  "Message Received"
vector 273  FranciscoScenario.node[24].appl  newWarningReceivedSignal:vector  ETV
attr description  "New Warning Received"
vector 248  FranciscoScenario.node[22].appl  warningReceivedSignal:vector  ETV
attr description  "Warning Received"
vector 250  FranciscoScenario.node[22].appl  messageReceivedSignal:vector  ETV
attr description  "Message Received"
vector 251  FranciscoScenario.node[22].appl  newWarningReceivedSignal:vector  ETV
attr description  "New Warning Received"
vector 391  FranciscoScenario.node[35].appl  warningReceivedSignal:vector  ETV
attr description  "Warning Received"
vector 393  FranciscoScenario.node[35].appl  messageReceivedSignal:vector  ETV
attr description  "Message Received"
vector 394  FranciscoScenario.node[35].appl  newWarningReceivedSignal:vector  ETV
attr description  "New Warning Received"
vector 325  FranciscoScenario.node[29].appl  warningReceivedSignal:vector  ETV
attr description  "Warning Received"
vector 327  FranciscoScenario.node[29].appl  messageReceivedSignal:vector  ETV
attr description  "Message Received"
vector 328  FranciscoScenario.node[29].appl  newWarningReceivedSignal:vector  ETV
attr description  "New Warning Received"
vector 61  FranciscoScenario.node[5].appl  warningReceivedSignal:vector  ETV
attr description  "Warning Received"
vector 63  FranciscoScenario.node[5].appl  messageReceivedSignal:vector  ETV
attr description  "Message Received"
vector 64  FranciscoScenario.node[5].appl  newWarningReceivedSignal:vector  ETV
attr description  "New Warning Received"
vector 193  FranciscoScenario.node[17].appl  warningReceivedSignal:vector  ETV
attr description  "Warning Received"
vector 195  FranciscoScenario.node[17].appl  messageReceivedSignal:vector  ETV
attr description  "Message Received"
vector 196  FranciscoScenario.node[17].appl  newWarningReceivedSignal:vector  ETV
attr description  "New Warning Received"
vector 149  FranciscoScenario.node[13].appl  warningReceivedSignal:vector  ETV
attr description  "Warning Received"
vector 151  FranciscoScenario.node[13].appl  messageReceivedSignal:vector  ETV
attr description  "Message Received"
vector 152  FranciscoScenario.node[13].appl  newWarningReceivedSignal:vector  ETV
attr description  "New Warning Received"
vector 402  FranciscoScenario.node[36].appl  warningReceivedSignal:vector  ETV
attr description  "Warning Received"
vector 404  FranciscoScenario.node[36].appl  messageReceivedSignal:vector  ETV
attr description  "Message Received"
vector 405  FranciscoScenario.node[36].appl  newWarningReceivedSignal:vector  ETV
attr description  "New Warning Received"
vector 72  FranciscoScenario.node[6].appl  warningReceivedSignal:vector  ETV
attr description  "Warning Received"
vector 74  FranciscoScenario.node[6].appl  messageReceivedSignal:vector  ETV
attr description  "Message Received"
vector 75  FranciscoScenario.node[6].appl  newWarningReceivedSignal:vector  ETV
attr description  "New Warning Received"
vector 380  FranciscoScenario.node[34].appl  warningReceivedSignal:vector  ETV
attr description  "Warning Received"
vector 382  FranciscoScenario.node[34].appl  messageReceivedSignal:vector  ETV
attr description  "Message Received"
vector 383  FranciscoScenario.node[34].appl  newWarningReceivedSignal:vector  ETV
attr description  "New Warning Received"
vector 28  FranciscoScenario.node[2].appl  warningReceivedSignal:vector  ETV
attr description  "Warning Received"
vector 30  FranciscoScenario.node[2].appl  messageReceivedSignal:vector  ETV
attr description  "Message Received"
vector 31  FranciscoScenario.node[2].appl  newWarningReceivedSignal:vector  ETV
attr description  "New Warning Received"
vector 182  FranciscoScenario.node[16].appl  warningReceivedSignal:vector  ETV
attr description  "Warning Received"
vector 184  FranciscoScenario.node[16].appl  messageReceivedSignal:vector  ETV
attr description  "Message Received"
vector 185  FranciscoScenario.node[16].appl  newWarningReceivedSignal:vector  ETV
attr description  "New Warning Received"
vector 303  FranciscoScenario.node[27].appl  warningReceivedSignal:vector  ETV
attr description  "Warning Received"
vector 305  FranciscoScenario.node[27].appl  messageReceivedSignal:vector  ETV
attr description  "Message Received"
vector 306  FranciscoScenario.node[27].appl  newWarningReceivedSignal:vector  ETV
attr description  "New Warning Received"
vector 17  FranciscoScenario.node[1].appl  warningReceivedSignal:vector  ETV
attr description  "Warning Received"
vector 19  FranciscoScenario.node[1].appl  messageReceivedSignal:vector  ETV
attr description  "Message Received"
vector 20  FranciscoScenario.node[1].appl  newWarningReceivedSignal:vector  ETV
attr description  "New Warning Received"
vector 138  FranciscoScenario.node[12].appl  warningReceivedSignal:vector  ETV
attr description  "Warning Received"
vector 140  FranciscoScenario.node[12].appl  messageReceivedSignal:vector  ETV
attr description  "Message Received"
vector 141  FranciscoScenario.node[12].appl  newWarningReceivedSignal:vector  ETV
attr description  "New Warning Received"
16	26372 4618 4 194 0.3 19.3 191 0.973 9.4314243413369 685.95909965859 3409.1742273469
15	30990 4982 4 194 0.3 19.3 191 -4.5 2.6 136.28193455437 770.18330642915
14	35972 5117 3 194 0.2 19.3 192 0.25286542447004 13.881058879907 1546.8342293821 14986.016531278
13	41089 5135 2 194 0.1 19.3 193 536.13995142756 611.28973704952 106125.13429137 58431324.698889
12	46224 5131 2 194 0.1 19.3 193 423.90352631458 509.05966710105 87676.450648037 40021958.421538
27	51355 4394 14 194 1.3 19.3 181 0.973 9.8487113884271 725.2371322646 4085.4511563407
26	55749 4807 14 194 1.3 19.3 181 -3.908291661808 2.6 135.19971415982 803.7323768614
25	60556 4871 13 194 1.2 19.3 182 0.2550030377931 13.889882573057 1583.9844585039 16466.676088987
24	65427 4890 12 194 1.1 19.3 183 1068.9935931067 1077.2068158912 196450.51046224 210890795.86624
23	70317 4888 12 194 1.1 19.3 183 1887.671034806 1969.2547855365 353004.76525919 681077342.9812
335	75205 2363 104 194 10.3 19.3 91 0.973 9.3278953057048 350.73418715408 1968.3938967356
334	77568 2639 104 194 10.3 19.3 91 -4.4304276614463 2.5990679510171 55.97269054262 529.69944538125
333	80207 2645 103 194 10.2 19.3 92 0.25385862074583 13.613652800221 702.80760012302 6620.5584464818
332	82852 2671 102 194 10.1 19.3 93 961.76150568182 966.01848413569 89598.078626434 86320785.26318
331	85523 2668 102 194 10.1 19.3 93 274.31601117801 343.87965909091 29460.0553913 9381979.5138591
346	88191 1958 114 194 11.3 19.3 81 0.973 6.7894636253085 204.61267484023 771.33767968658
345	90149 2271 114 194 11.3 19.3 81 -4.1000898985503 2.6 10.068849055063 403.77170432229
344	92420 2255 113 194 11.2 19.3 82 0.26 9.3665418020287 397.90661553043 2458.0124674297
343	94675 2377 112 194 11.1 19.3 83 489.84291971479 496.91822580645 40835.161982986 20090872.607333
342	97052 2370 112 194 11.1 19.3 83 1240.2350479425 1275.1774193548 104575.39087828 131773586.64794
357	99422 1937 124 194 12.3 19.3 71 0.973 7.5171489711547 261.08909080177 1217.2235763521
356	101359 2066 124 194 12.3 19.3 71 -0.81678704067599 2.5964145920705 107.98052152797 233.00412937908
355	103425 2071 123 194 12.2 19.3 72 0.25662519697938 11.174289325748 512.03836243925 4576.3950998126
354	105496 2097 122 194 12.1 19.3 73 467.01131810193 470.06946104196 34170.553963775 15994953.431097
353	107593 2093 122 194 12.1 19.3 73 1591.798640926 1641.8089630931 118564.60638894 192587134.79122
368	109686 1747 134 194 13.3 19.3 61 1.4207181147385 8.6080615734443 267.29161566082 1377.8404349919
367	111433 1752 134 194 13.3 19.3 61 1.3370759575395 2.5486099635608 118.11809434681 236.93654647334
366	113185 1783 133 194 13.2 19.3 62 0.25288947766786 12.064698912349 389.05060722708 3157.0720300041
365	114968 1810 132 194 13.1 19.3 63 2924.9715469005 2962.5995494367 185835.58763386 548180694.51903
364	116778 1807 132 194 13.1 19.3 63 1518.368640378 1520.6776314427 95753.097672987 145534248.65023
379	118585 1463 144 194 14.3 19.3 51 1.4102394826714 6.7922071014444 201.50959183288 921.80887997416
378	120048 1464 144 194 14.3 19.3 51 1.3493697646307 2.5826323930213 100.40217983951 204.66525815449
377	121512 1497 143 194 14.2 19.3 52 0.25218403917039 10.292402023122 279.17370674643 1944.4466493378
376	123009 1524 142 194 14.1 19.3 53 2694.6108936951 2721.4494104672 143754.25380544 389914580.97577
375	124533 1517 142 194 14.1 19.3 53 2072.9157127784 2074.5500142433 109921.76550197 227977268.40767
390	126050 1174 154 194 15.3 19.3 41 1.4110344642574 7.0290932503903 150.90690259692 641.30234285472