version 2
run nodebug-0-20140803-18:59:32-14655
attr configname nodebug
attr datetime 20140803-18:59:32
attr experiment nodebug
attr inifile omnetpp.ini
attr iterationvars ""
attr iterationvars2 $repetition=0
attr measurement ""
attr network src.modules.scenario.FranciscoScenario
attr processid 14655
attr repetition 0
attr replication #0
attr resultdir results
attr runnumber 0
attr seedset 0

vector 12  FranciscoScenario.node[0].veinsmobility  posx  ETV
vector 13  FranciscoScenario.node[0].veinsmobility  posy  ETV
vector 14  FranciscoScenario.node[0].veinsmobility  speed  ETV
vector 15  FranciscoScenario.node[0].veinsmobility  acceleration  ETV
vector 16  FranciscoScenario.node[0].veinsmobility  co2emission  ETV
vector 23  FranciscoScenario.node[1].veinsmobility  posx  ETV
vector 24  FranciscoScenario.node[1].veinsmobility  posy  ETV
vector 34  FranciscoScenario.node[2].veinsmobility  posx  ETV
vector 35  FranciscoScenario.node[2].veinsmobility  posy  ETV
vector 45  FranciscoScenario.node[3].veinsmobility  posx  ETV
vector 46  FranciscoScenario.node[3].veinsmobility  posy  ETV
vector 56  FranciscoScenario.node[4].veinsmobility  posx  ETV
vector 57  FranciscoScenario.node[4].veinsmobility  posy  ETV
vector 67  FranciscoScenario.node[5].veinsmobility  posx  ETV
vector 68  FranciscoScenario.node[5].veinsmobility  posy  ETV
vector 78  FranciscoScenario.node[6].veinsmobility  posx  ETV
vector 79  FranciscoScenario.node[6].veinsmobility  posy  ETV
vector 89  FranciscoScenario.node[7].veinsmobility  posx  ETV
vector 90  FranciscoScenario.node[7].veinsmobility  posy  ETV
vector 100  FranciscoScenario.node[8].veinsmobility  posx  ETV
vector 101  FranciscoScenario.node[8].veinsmobility  posy  ETV
vector 111  FranciscoScenario.node[9].veinsmobility  posx  ETV
vector 112  FranciscoScenario.node[9].veinsmobility  posy  ETV
vector 122  FranciscoScenario.node[10].veinsmobility  posx  ETV
vector 123  FranciscoScenario.node[10].veinsmobility  posy  ETV
vector 133  FranciscoScenario.node[11].veinsmobility  posx  ETV
vector 134  FranciscoScenario.node[11].veinsmobility  posy  ETV
vector 144  FranciscoScenario.node[12].veinsmobility  posx  ETV
vector 145  FranciscoScenario.node[12].veinsmobility  posy  ETV
vector 155  FranciscoScenario.node[13].veinsmobility  posx  ETV
vector 156  FranciscoScenario.node[13].veinsmobility  posy  ETV
vector 166  FranciscoScenario.node[14].veinsmobility  posx  ETV
vector 167  FranciscoScenario.node[14].veinsmobility  posy  ETV
vector 177  FranciscoScenario.node[15].veinsmobility  posx  ETV
vector 178  FranciscoScenario.node[15].veinsmobility  posy  ETV
vector 188  FranciscoScenario.node[16].veinsmobility  posx  ETV
vector 189  FranciscoScenario.node[16].veinsmobility  posy  ETV
vector 199  FranciscoScenario.node[17].veinsmobility  posx  ETV
vector 200  FranciscoScenario.node[17].veinsmobility  posy  ETV
vector 210  FranciscoScenario.node[18].veinsmobility  posx  ETV
vector 211  FranciscoScenario.node[18].veinsmobility  posy  ETV
vector 25  FranciscoScenario.node[1].veinsmobility  speed  ETV
vector 26  FranciscoScenario.node[1].veinsmobility  acceleration  ETV
vector 27  FranciscoScenario.node[1].veinsmobility  co2emission  ETV
vector 36  FranciscoScenario.node[2].veinsmobility  speed  ETV
vector 47  FranciscoScenario.node[3].veinsmobility  speed  ETV
vector 58  FranciscoScenario.node[4].veinsmobility  speed  ETV
vector 69  FranciscoScenario.node[5].veinsmobility  speed  ETV
vector 80  FranciscoScenario.node[6].veinsmobility  speed  ETV
vector 91  FranciscoScenario.node[7].veinsmobility  speed  ETV
vector 102  FranciscoScenario.node[8].veinsmobility  speed  ETV
vector 113  FranciscoScenario.node[9].veinsmobility  speed  ETV
vector 124  FranciscoScenario.node[10].veinsmobility  speed  ETV
vector 135  FranciscoScenario.node[11].veinsmobility  speed  ETV
vector 146  FranciscoScenario.node[12].veinsmobility  speed  ETV
vector 157  FranciscoScenario.node[13].veinsmobility  speed  ETV
vector 168  FranciscoScenario.node[14].veinsmobility  speed  ETV
vector 179  FranciscoScenario.node[15].veinsmobility  speed  ETV
vector 190  FranciscoScenario.node[16].veinsmobility  speed  ETV
vector 201  FranciscoScenario.node[17].veinsmobility  speed  ETV
vector 212  FranciscoScenario.node[18].veinsmobility  speed  ETV
vector 37  FranciscoScenario.node[2].veinsmobility  acceleration  ETV
vector 38  FranciscoScenario.node[2].veinsmobility  co2emission  ETV
vector 48  FranciscoScenario.node[3].veinsmobility  acceleration  ETV
vector 49  FranciscoScenario.node[3].veinsmobility  co2emission  ETV
vector 59  FranciscoScenario.node[4].veinsmobility  acceleration  ETV
vector 60  FranciscoScenario.node[4].veinsmobility  co2emission  ETV
vector 70  FranciscoScenario.node[5].veinsmobility  acceleration  ETV
vector 71  FranciscoScenario.node[5].veinsmobility  co2emission  ETV
vector 81  FranciscoScenario.node[6].veinsmobility  acceleration  ETV
vector 82  FranciscoScenario.node[6].veinsmobility  co2emission  ETV
vector 92  FranciscoScenario.node[7].veinsmobility  acceleration  ETV
vector 93  FranciscoScenario.node[7].veinsmobility  co2emission  ETV
vector 103  FranciscoScenario.node[8].veinsmobility  acceleration  ETV
vector 104  FranciscoScenario.node[8].veinsmobility  co2emission  ETV
vector 114  FranciscoScenario.node[9].veinsmobility  acceleration  ETV
vector 115  FranciscoScenario.node[9].veinsmobility  co2emission  ETV
vector 125  FranciscoScenario.node[10].veinsmobility  acceleration  ETV
vector 126  FranciscoScenario.node[10].veinsmobility  co2emission  ETV
vector 136  FranciscoScenario.node[11].veinsmobility  acceleration  ETV
vector 137  FranciscoScenario.node[11].veinsmobility  co2emission  ETV
vector 147  FranciscoScenario.node[12].veinsmobility  acceleration  ETV
vector 148  FranciscoScenario.node[12].veinsmobility  co2emission  ETV
vector 158  FranciscoScenario.node[13].veinsmobility  acceleration  ETV
vector 159  FranciscoScenario.node[13].veinsmobility  co2emission  ETV
vector 169  FranciscoScenario.node[14].veinsmobility  acceleration  ETV
vector 170  FranciscoScenario.node[14].veinsmobility  co2emission  ETV
vector 180  FranciscoScenario.node[15].veinsmobility  acceleration  ETV
vector 181  FranciscoScenario.node[15].veinsmobility  co2emission  ETV
vector 191  FranciscoScenario.node[16].veinsmobility  acceleration  ETV
vector 192  FranciscoScenario.node[16].veinsmobility  co2emission  ETV
vector 202  FranciscoScenario.node[17].veinsmobility  acceleration  ETV
vector 203  FranciscoScenario.node[17].veinsmobility  co2emission  ETV
vector 213  FranciscoScenario.node[18].veinsmobility  acceleration  ETV
vector 214  FranciscoScenario.node[18].veinsmobility  co2emission  ETV
vector 221  FranciscoScenario.node[19].veinsmobility  posx  ETV
vector 222  FranciscoScenario.node[19].veinsmobility  posy  ETV
vector 223  FranciscoScenario.node[19].veinsmobility  speed  ETV
vector 224  FranciscoScenario.node[19].veinsmobility  acceleration  ETV
vector 225  FranciscoScenario.node[19].veinsmobility  co2emission  ETV
vector 232  FranciscoScenario.node[20].veinsmobility  posx  ETV
vector 233  FranciscoScenario.node[20].veinsmobility  posy  ETV
vector 243  FranciscoScenario.node[21].veinsmobility  posx  ETV
vector 244  FranciscoScenario.node[21].veinsmobility  posy  ETV
vector 234  FranciscoScenario.node[20].veinsmobility  speed  ETV
vector 245  FranciscoScenario.node[21].veinsmobility  speed  ETV
vector 235  FranciscoScenario.node[20].veinsmobility  acceleration  ETV
vector 236  FranciscoScenario.node[20].veinsmobility  co2emission  ETV
vector 246  FranciscoScenario.node[21].veinsmobility  acceleration  ETV
vector 247  FranciscoScenario.node[21].veinsmobility  co2emission  ETV
vector 254  FranciscoScenario.node[22].veinsmobility  posx  ETV
vector 255  FranciscoScenario.node[22].veinsmobility  posy  ETV
vector 256  FranciscoScenario.node[22].veinsmobility  speed  ETV
vector 257  FranciscoScenario.node[22].veinsmobility  acceleration  ETV
vector 258  FranciscoScenario.node[22].veinsmobility  co2emission  ETV
vector 265  FranciscoScenario.node[23].veinsmobility  posx  ETV
vector 266  FranciscoScenario.node[23].veinsmobility  posy  ETV
vector 267  FranciscoScenario.node[23].veinsmobility  speed  ETV
vector 268  FranciscoScenario.node[23].veinsmobility  acceleration  ETV
vector 269  FranciscoScenario.node[23].veinsmobility  co2emission  ETV
vector 276  FranciscoScenario.node[24].veinsmobility  posx  ETV
vector 277  FranciscoScenario.node[24].veinsmobility  posy  ETV
vector 278  FranciscoScenario.node[24].veinsmobility  speed  ETV
vector 279  FranciscoScenario.node[24].veinsmobility  acceleration  ETV
vector 280  FranciscoScenario.node[24].veinsmobility  co2emission  ETV
vector 287  FranciscoScenario.node[25].veinsmobility  posx  ETV
vector 288  FranciscoScenario.node[25].veinsmobility  posy  ETV
vector 289  FranciscoScenario.node[25].veinsmobility  speed  ETV
vector 290  FranciscoScenario.node[25].veinsmobility  acceleration  ETV
vector 291  FranciscoScenario.node[25].veinsmobility  co2emission  ETV
vector 298  FranciscoScenario.node[26].veinsmobility  posx  ETV
vector 299  FranciscoScenario.node[26].veinsmobility  posy  ETV
vector 300  FranciscoScenario.node[26].veinsmobility  speed  ETV
vector 309  FranciscoScenario.node[27].veinsmobility  posx  ETV
vector 310  FranciscoScenario.node[27].veinsmobility  posy  ETV
vector 301  FranciscoScenario.node[26].veinsmobility  acceleration  ETV
vector 302  FranciscoScenario.node[26].veinsmobility  co2emission  ETV
vector 311  FranciscoScenario.node[27].veinsmobility  speed  ETV
vector 312  FranciscoScenario.node[27].veinsmobility  acceleration  ETV
vector 313  FranciscoScenario.node[27].veinsmobility  co2emission  ETV
vector 320  FranciscoScenario.node[28].veinsmobility  posx  ETV
vector 321  FranciscoScenario.node[28].veinsmobility  posy  ETV
vector 322  FranciscoScenario.node[28].veinsmobility  speed  ETV
vector 323  FranciscoScenario.node[28].veinsmobility  acceleration  ETV
vector 324  FranciscoScenario.node[28].veinsmobility  co2emission  ETV
vector 331  FranciscoScenario.node[29].veinsmobility  posx  ETV
vector 332  FranciscoScenario.node[29].veinsmobility  posy  ETV
vector 333  FranciscoScenario.node[29].veinsmobility  speed  ETV
vector 334  FranciscoScenario.node[29].veinsmobility  acceleration  ETV
vector 335  FranciscoScenario.node[29].veinsmobility  co2emission  ETV
vector 342  FranciscoScenario.node[30].veinsmobility  posx  ETV
vector 343  FranciscoScenario.node[30].veinsmobility  posy  ETV
vector 344  FranciscoScenario.node[30].veinsmobility  speed  ETV
vector 345  FranciscoScenario.node[30].veinsmobility  acceleration  ETV
vector 346  FranciscoScenario.node[30].veinsmobility  co2emission  ETV
vector 353  FranciscoScenario.node[31].veinsmobility  posx  ETV
vector 354  FranciscoScenario.node[31].veinsmobility  posy  ETV
vector 355  FranciscoScenario.node[31].veinsmobility  speed  ETV
vector 356  FranciscoScenario.node[31].veinsmobility  acceleration  ETV
vector 357  FranciscoScenario.node[31].veinsmobility  co2emission  ETV
vector 364  FranciscoScenario.node[32].veinsmobility  posx  ETV
vector 365  FranciscoScenario.node[32].veinsmobility  posy  ETV
vector 366  FranciscoScenario.node[32].veinsmobility  speed  ETV
vector 367  FranciscoScenario.node[32].veinsmobility  acceleration  ETV
vector 368  FranciscoScenario.node[32].veinsmobility  co2emission  ETV
vector 375  FranciscoScenario.node[33].veinsmobility  posx  ETV
vector 376  FranciscoScenario.node[33].veinsmobility  posy  ETV
vector 377  FranciscoScenario.node[33].veinsmobility  speed  ETV
vector 378  FranciscoScenario.node[33].veinsmobility  acceleration  ETV
vector 379  FranciscoScenario.node[33].veinsmobility  co2emission  ETV
vector 386  FranciscoScenario.node[34].veinsmobility  posx  ETV
vector 387  FranciscoScenario.node[34].veinsmobility  posy  ETV
vector 388  FranciscoScenario.node[34].veinsmobility  speed  ETV
vector 389  FranciscoScenario.node[34].veinsmobility  acceleration  ETV
vector 390  FranciscoScenario.node[34].veinsmobility  co2emission  ETV
vector 397  FranciscoScenario.node[35].veinsmobility  posx  ETV
vector 398  FranciscoScenario.node[35].veinsmobility  posy  ETV
vector 399  FranciscoScenario.node[35].veinsmobility  speed  ETV
vector 400  FranciscoScenario.node[35].veinsmobility  acceleration  ETV
vector 401  FranciscoScenario.node[35].veinsmobility  co2emission  ETV
vector 408  FranciscoScenario.node[36].veinsmobility  posx  ETV
vector 409  FranciscoScenario.node[36].veinsmobility  posy  ETV
vector 410  FranciscoScenario.node[36].veinsmobility  speed  ETV
vector 411  FranciscoScenario.node[36].veinsmobility  acceleration  ETV
vector 412  FranciscoScenario.node[36].veinsmobility  co2emission  ETV
vector 419  FranciscoScenario.node[37].veinsmobility  posx  ETV
vector 420  FranciscoScenario.node[37].veinsmobility  posy  ETV
vector 421  FranciscoScenario.node[37].veinsmobility  speed  ETV
vector 422  FranciscoScenario.node[37].veinsmobility  acceleration  ETV
vector 423  FranciscoScenario.node[37].veinsmobility  co2emission  ETV
vector 430  FranciscoScenario.node[38].veinsmobility  posx  ETV
vector 431  FranciscoScenario.node[38].veinsmobility  posy  ETV
vector 432  FranciscoScenario.node[38].veinsmobility  speed  ETV
vector 4  FranciscoScenario.stats  accidentStartTimeSignal:vector  ETV
attr description  "Accident Start Time"
vector 1  FranciscoScenario.stats  allNewWarningsReceivedSignal:vector  ETV
attr description  "All New Warnings Received"
vector 5  FranciscoScenario.stats  percentOfInformedVehiclesSignal:vector  ETV
attr description  "Percent Of Informed Vehicles"
vector 433  FranciscoScenario.node[38].veinsmobility  acceleration  ETV
vector 434  FranciscoScenario.node[38].veinsmobility  co2emission  ETV
vector 336  FranciscoScenario.node[30].appl  warningReceivedSignal:vector  ETV
attr description  "Warning Received"
vector 338  FranciscoScenario.node[30].appl  messageReceivedSignal:vector  ETV
attr description  "Message Received"
vector 2  FranciscoScenario.stats  allWarningsReceivedSignal:vector  ETV
attr description  "All Warnings Received"
vector 3  FranciscoScenario.stats  allMessagesReceivedSignal:vector  ETV
attr description  "All Messages Received"
vector 339  FranciscoScenario.node[30].appl  newWarningReceivedSignal:vector  ETV
attr description  "New Warning Received"
vector 413  FranciscoScenario.node[37].appl  warningReceivedSignal:vector  ETV
attr description  "Warning Received"
vector 415  FranciscoScenario.node[37].appl  messageReceivedSignal:vector  ETV
attr description  "Message Received"
vector 416  FranciscoScenario.node[37].appl  newWarningReceivedSignal:vector  ETV
attr description  "New Warning Received"
vector 50  FranciscoScenario.node[4].appl  warningReceivedSignal:vector  ETV
attr description  "Warning Received"
vector 52  FranciscoScenario.node[4].appl  messageReceivedSignal:vector  ETV
attr description  "Message Received"
vector 53  FranciscoScenario.node[4].appl  newWarningReceivedSignal:vector  ETV
attr description  "New Warning Received"
vector 171  FranciscoScenario.node[15].appl  warningReceivedSignal:vector  ETV
attr description  "Warning Received"
vector 173  FranciscoScenario.node[15].appl  messageReceivedSignal:vector  ETV
attr description  "Message Received"
vector 174  FranciscoScenario.node[15].appl  newWarningReceivedSignal:vector  ETV
attr description  "New Warning Received"
vector 237  FranciscoScenario.node[21].appl  warningReceivedSignal:vector  ETV
attr description  "Warning Received"
vector 239  FranciscoScenario.node[21].appl  messageReceivedSignal:vector  ETV
attr description  "Message Received"
vector 240  FranciscoScenario.node[21].appl  newWarningReceivedSignal:vector  ETV
attr description  "New Warning Received"
vector 83  FranciscoScenario.node[7].appl  warningReceivedSignal:vector  ETV
attr description  "Warning Received"
vector 85  FranciscoScenario.node[7].appl  messageReceivedSignal:vector  ETV
attr description  "Message Received"
vector 86  FranciscoScenario.node[7].appl  newWarningReceivedSignal:vector  ETV
attr description  "New Warning Received"
vector 347  FranciscoScenario.node[31].appl  warningReceivedSignal:vector  ETV
attr description  "Warning Received"
vector 349  FranciscoScenario.node[31].appl  messageReceivedSignal:vector  ETV
attr description  "Message Received"
vector 350  FranciscoScenario.node[31].appl  newWarningReceivedSignal:vector  ETV
attr description  "New Warning Received"
vector 204  FranciscoScenario.node[18].appl  warningReceivedSignal:vector  ETV
attr description  "Warning Received"
vector 206  FranciscoScenario.node[18].appl  messageReceivedSignal:vector  ETV
attr description  "Message Received"
vector 207  FranciscoScenario.node[18].appl  newWarningReceivedSignal:vector  ETV
attr description  "New Warning Received"
vector 226  FranciscoScenario.node[20].appl  warningReceivedSignal:vector  ETV
attr description  "Warning Received"
vector 228  FranciscoScenario.node[20].appl  messageReceivedSignal:vector  ETV
attr description  "Message Received"
vector 229  FranciscoScenario.node[20].appl  newWarningReceivedSignal:vector  ETV
attr description  "New Warning Received"
vector 314  FranciscoScenario.node[28].appl  warningReceivedSignal:vector  ETV
attr description  "Warning Received"
vector 316  FranciscoScenario.node[28].appl  messageReceivedSignal:vector  ETV
attr description  "Message Received"
vector 317  FranciscoScenario.node[28].appl  newWarningReceivedSignal:vector  ETV
attr description  "New Warning Received"
vector 215  FranciscoScenario.node[19].appl  warningReceivedSignal:vector  ETV
attr description  "Warning Received"
vector 217  FranciscoScenario.node[19].appl  messageReceivedSignal:vector  ETV
attr description  "Message Received"
vector 218  FranciscoScenario.node[19].appl  newWarningReceivedSignal:vector  ETV
attr description  "New Warning Received"
vector 259  FranciscoScenario.node[23].appl  warningReceivedSignal:vector  ETV
attr description  "Warning Received"
vector 261  FranciscoScenario.node[23].appl  messageReceivedSignal:vector  ETV
attr description  "Message Received"
vector 262  FranciscoScenario.node[23].appl  newWarningReceivedSignal:vector  ETV
attr description  "New Warning Received"
vector 160  FranciscoScenario.node[14].appl  warningReceivedSignal:vector  ETV
attr description  "Warning Received"
vector 162  FranciscoScenario.node[14].appl  messageReceivedSignal:vector  ETV
attr description  "Message Received"
vector 163  FranciscoScenario.node[14].appl  newWarningReceivedSignal:vector  ETV
attr description  "New Warning Received"
vector 281  FranciscoScenario.node[25].appl  warningReceivedSignal:vector  ETV
attr description  "Warning Received"
vector 283  FranciscoScenario.node[25].appl  messageReceivedSignal:vector  ETV
attr description  "Message Received"
vector 284  FranciscoScenario.node[25].appl  newWarningReceivedSignal:vector  ETV
attr description  "New Warning Received"
vector 116  FranciscoScenario.node[10].appl  warningReceivedSignal:vector  ETV
attr description  "Warning Received"
vector 118  FranciscoScenario.node[10].appl  messageReceivedSignal:vector  ETV
attr description  "Message Received"
vector 119  FranciscoScenario.node[10].appl  newWarningReceivedSignal:vector  ETV
attr description  "New Warning Received"
vector 127  FranciscoScenario.node[11].appl  warningReceivedSignal:vector  ETV
attr description  "Warning Received"
vector 129  FranciscoScenario.node[11].appl  messageReceivedSignal:vector  ETV
attr description  "Message Received"
vector 130  FranciscoScenario.node[11].appl  newWarningReceivedSignal:vector  ETV
attr description  "New Warning Received"
vector 39  FranciscoScenario.node[3].appl  warningReceivedSignal:vector  ETV
attr description  "Warning Received"
vector 41  FranciscoScenario.node[3].appl  messageReceivedSignal:vector  ETV
attr description  "Message Received"
vector 42  FranciscoScenario.node[3].appl  newWarningReceivedSignal:vector  ETV
attr description  "New Warning Received"
vector 6  FranciscoScenario.node[0].appl  warningReceivedSignal:vector  ETV
attr description  "Warning Received"
vector 8  FranciscoScenario.node[0].appl  messageReceivedSignal:vector  ETV
attr description  "Message Received"
vector 9  FranciscoScenario.node[0].appl  newWarningReceivedSignal:vector  ETV
attr description  "New Warning Received"
vector 292  FranciscoScenario.node[26].appl  warningReceivedSignal:vector  ETV
attr description  "Warning Received"
vector 294  FranciscoScenario.node[26].appl  messageReceivedSignal:vector  ETV
attr description  "Message Received"
vector 295  FranciscoScenario.node[26].appl  newWarningReceivedSignal:vector  ETV
attr description  "New Warning Received"
vector 105  FranciscoScenario.node[9].appl  warningReceivedSignal:vector  ETV
attr description  "Warning Received"
vector 107  FranciscoScenario.node[9].appl  messageReceivedSignal:vector  ETV
attr description  "Message Received"
vector 108  FranciscoScenario.node[9].appl  newWarningReceivedSignal:vector  ETV
attr description  "New Warning Received"
vector 270  FranciscoScenario.node[24].appl  warningReceivedSignal:vector  ETV
attr description  "Warning Received"
vector 272  FranciscoScenario.node[24].appl  messageReceivedSignal:vector  ETV
attr description  "Message Received"
vector 273  FranciscoScenario.node[24].appl  newWarningReceivedSignal:vector  ETV
attr description  "New Warning Received"
vector 248  FranciscoScenario.node[22].appl  warningReceivedSignal:vector  ETV
attr description  "Warning Received"
vector 250  FranciscoScenario.node[22].appl  messageReceivedSignal:vector  ETV
attr description  "Message Received"
vector 251  FranciscoScenario.node[22].appl  newWarningReceivedSignal:vector  ETV
attr description  "New Warning Received"
vector 391  FranciscoScenario.node[35].appl  warningReceivedSignal:vector  ETV
attr description  "Warning Received"
vector 393  FranciscoScenario.node[35].appl  messageReceivedSignal:vector  ETV
attr description  "Message Received"
vector 394  FranciscoScenario.node[35].appl  newWarningReceivedSignal:vector  ETV
attr description  "New Warning Received"
vector 325  FranciscoScenario.node[29].appl  warningReceivedSignal:vector  ETV
attr description  "Warning Received"
vector 327  FranciscoScenario.node[29].appl  messageReceivedSignal:vector  ETV
attr description  "Message Received"
vector 328  FranciscoScenario.node[29].appl  newWarningReceivedSignal:vector  ETV
attr description  "New Warning Received"
vector 61  FranciscoScenario.node[5].appl  warningReceivedSignal:vector  ETV
attr description  "Warning Received"
vector 63  FranciscoScenario.node[5].appl  messageReceivedSignal:vector  ETV
attr description  "Message Received"
vector 64  FranciscoScenario.node[5].appl  newWarningReceivedSignal:vector  ETV
attr description  "New Warning Received"
vector 193  FranciscoScenario.node[17].appl  warningReceivedSignal:vector  ETV
attr description  "Warning Received"
vector 195  FranciscoScenario.node[17].appl  messageReceivedSignal:vector  ETV
attr description  "Message Received"
vector 196  FranciscoScenario.node[17].appl  newWarningReceivedSignal:vector  ETV
attr description  "New Warning Received"
vector 149  FranciscoScenario.node[13].appl  warningReceivedSignal:vector  ETV
attr description  "Warning Received"
vector 151  FranciscoScenario.node[13].appl  messageReceivedSignal:vector  ETV
attr description  "Message Received"
vector 152  FranciscoScenario.node[13].appl  newWarningReceivedSignal:vector  ETV
attr description  "New Warning Received"
vector 402  FranciscoScenario.node[36].appl  warningReceivedSignal:vector  ETV
attr description  "Warning Received"
vector 404  FranciscoScenario.node[36].appl  messageReceivedSignal:vector  ETV
attr description  "Message Received"
vector 405  FranciscoScenario.node[36].appl  newWarningReceivedSignal:vector  ETV
attr description  "New Warning Received"
vector 72  FranciscoScenario.node[6].appl  warningReceivedSignal:vector  ETV
attr description  "Warning Received"
vector 74  FranciscoScenario.node[6].appl  messageReceivedSignal:vector  ETV
attr description  "Message Received"
vector 75  FranciscoScenario.node[6].appl  newWarningReceivedSignal:vector  ETV
attr description  "New Warning Received"
vector 380  FranciscoScenario.node[34].appl  warningReceivedSignal:vector  ETV
attr description  "Warning Received"
vector 382  FranciscoScenario.node[34].appl  messageReceivedSignal:vector  ETV
attr description  "Message Received"
vector 383  FranciscoScenario.node[34].appl  newWarningReceivedSignal:vector  ETV
attr description  "New Warning Received"
vector 28  FranciscoScenario.node[2].appl  warningReceivedSignal:vector  ETV
attr description  "Warning Received"
vector 30  FranciscoScenario.node[2].appl  messageReceivedSignal:vector  ETV
attr description  "Message Received"
vector 31  FranciscoScenario.node[2].appl  newWarningReceivedSignal:vector  ETV
attr description  "New Warning Received"
vector 182  FranciscoScenario.node[16].appl  warningReceivedSignal:vector  ETV
attr description  "Warning Received"
vector 184  FranciscoScenario.node[16].appl  messageReceivedSignal:vector  ETV
attr description  "Message Received"
vector 185  FranciscoScenario.node[16].appl  newWarningReceivedSignal:vector  ETV
attr description  "New Warning Received"
vector 303  FranciscoScenario.node[27].appl  warningReceivedSignal:vector  ETV
attr description  "Warning Received"
vector 305  FranciscoScenario.node[27].appl  messageReceivedSignal:vector  ETV
attr description  "Message Received"
vector 306  FranciscoScenario.node[27].appl  newWarningReceivedSignal:vector  ETV
attr description  "New Warning Received"
vector 17  FranciscoScenario.node[1].appl  warningReceivedSignal:vector  ETV
attr description  "Warning Received"
vector 19  FranciscoScenario.node[1].appl  messageReceivedSignal:vector  ETV
attr description  "Message Received"
vector 20  FranciscoScenario.node[1].appl  newWarningReceivedSignal:vector  ETV
attr description  "New Warning Received"
vector 138  FranciscoScenario.node[12].appl  warningReceivedSignal:vector  ETV
attr description  "Warning Received"
vector 140  FranciscoScenario.node[12].appl  messageReceivedSignal:vector  ETV
attr description  "Message Received"
vector 141  FranciscoScenario.node[12].appl  newWarningReceivedSignal:vector  ETV
attr description  "New Warning Received"
16	4	0.3	1.4276208928798
16	5	0.4	1.5553504369406
16	6	0.5	1.6547258140606
16	7	0.6	1.7983555805977
16	8	0.7	1.8323674505787
16	9	0.8	2.0110897446338
16	10	0.9	1.970451684244
16	11	1	2.244901373431
16	12	1.1	2.2119208452933
16	13	1.2	2.2548819012347
16	14	1.3	2.1003346609958
16	15	1.4	2.6295824611815
16	16	1.5	2.9732997811396
16	17	1.6	3.1191270811211
16	18	1.7	2.6785209205362
16	19	1.8	2.8010866611016
16	20	1.9	3.4327220833448
16	21	2	3.239537714786
16	22	2.1	3.0171880107526
16	23	2.2	3.1599942212969
16	24	2.3	3.7774756949343
16	25	2.4	4.1808379671823
16	26	2.5	4.1492730534794
16	27	2.6	4.5105267233075
16	28	2.7	3.1048882418588
16	29	2.8	4.011748783331
16	30	2.9	4.9836485633278
16	31	3	4.9130468331214
16	32	3.1	4.8649677707008
16	33	3.2	3.5257135925085
16	34	3.3	4.6785123334467
16	35	3.4	5.0748006596807
16	36	3.5	5.3651547055227
16	37	3.6	4.5121234693545
16	38	3.7	4.4181630060388
16	39	3.8	4.2869648926743
16	40	3.9	4.0842119116162
16	41	4	4.6121089466554
16	42	4.1	4.1533342992221
16	43	4.2	5.9328186501098
16	44	4.3	5.5972506064722
16	45	4.4	4.6819763784491
16	46	4.5	4.6475639573081
16	47	4.6	6.8159436779424
16	48	4.7	5.6939609358173
16	49	4.8	5.6652666326801
16	50	4.9	6.7181732553046
16	51	5	7.545523886154
16	52	5.1	4.8490924032277
16	53	5.2	5.8603355812422
16	54	5.3	8.0538841118892
16	55	5.4	7.1675666824522
16	56	5.5	5.6409943131668
16	57	5.6	6.4981428200032
16	58	5.7	7.3188312078651
16	59	5.8	0.973
16	60	5.9	2.781999923913
16	61	6	2.6477417802127
16	62	6.1	1.2042520775061
16	63	6.2	2.2184693651492
16	64	6.3	0.973
16	65	6.4	4.1687184052414
16	66	6.5	0.973
16	67	6.6	2.2123795264187
16	68	6.7	1.7949269855741
16	69	6.8	3.0933493029929
16	70	6.9	0.973
16	71	7	2.2248323238475
16	72	7.1	0.973
16	73	7.2	3.2857499419121
16	74	7.3	0.973
16	75	7.4	4.6233450105471
16	76	7.5	0.973
16	77	7.6	1.3227244363017
16	78	7.7	1.3009715227308
16	79	7.8	0.973
16	80	7.9	0.973
16	81	8	0.973
16	82	8.1	0.973
16	83	8.2	0.973
16	84	8.3	0.973
16	85	8.4	0.973
16	86	8.5	0.973
16	87	8.6	0.973
16	88	8.7	0.973
16	89	8.8	0.973
16	90	8.9	0.973
16	91	9	0.973
16	92	9.1	0.973
16	93	9.2	0.973
16	94	9.3	0.973
16	95	9.4	0.973
16	96	9.5	0.973
16	97	9.6	0.973
16	98	9.7	0.973
16	99	9.8	0.973
16	100	9.9	0.973
16	101	10	0.973
16	102	10.1	0.973
16	103	10.2	0.973
16	104	10.3	0.973
16	105	10.4	0.973
16	106	10.5	0.973
16	107	10.6	0.973
16	108	10.7	3.5268297397723
16	109	10.8	3.7032776976798
16	110	10.9	3.8798693518046
16	111	11	4.0566144440537
16	112	11.1	4.2335227163343
16	113	11.2	4.4106039105536
16	114	11.3	4.5878677686189
16	115	11.4	0.973
16	116	11.5	4.4583104208159
16	117	11.6	0.973
16	118	11.7	0.973
16	119	11.8	0.973
16	120	11.9	0.973
16	121	12	0.973
16	122	12.1	0.973
16	123	12.2	0.973
16	124	12.3	3.6800795561122
16	125	12.4	3.8566517685324
16	126	12.5	4.0333761387204
16	127	12.6	4.2102624085835
16	128	12.7	4.3873203200289
16	129	12.8	4.5645596149637
16	130	12.9	4.7419900352951
16	131	13	4.9196213229302
16	132	13.1	5.0974632197762
16	133	13.2	4.5439231296616
16	134	13.3	4.060125885866
16	135	13.4	4.2930084715727
16	136	13.5	4.3028398671476
16	137	13.6	4.0128410946451
16	138	13.7	3.7618167514012
16	139	13.8	3.7202171975258
16	140	13.9	5.052645794809
16	141	14	5.2117743712976
16	142	14.1	4.0019346757906
16	143	14.2	6.2526905522389
16	144	14.3	4.3364670016889
16	145	14.4	4.8615013225122
16	146	14.5	4.744866649098
16	147	14.6	5.4151565067415
16	148	14.7	4.6990110148273
16	149	14.8	4.7741255756833
16	150	14.9	6.9687477411007
16	151	15	6.2321843234518
16	152	15.1	7.2673631797352
16	153	15.2	4.9118756134888
16	154	15.3	5.4371409957957
16	155	15.4	4.9672757620213
16	156	15.5	6.3188266693258