version 2
run nodebug-0-20140802-13:39:45-8052
attr configname nodebug
attr datetime 20140802-13:39:45
attr experiment nodebug
attr inifile omnetpp.ini
attr iterationvars ""
attr iterationvars2 $repetition=0
attr measurement ""
attr network src.modules.scenario.FranciscoScenario
attr processid 8052
attr repetition 0
attr replication #0
attr resultdir results
attr runnumber 0
attr seedset 0

vector 6  FranciscoScenario.node[0].veinsmobility  posx  ETV
vector 7  FranciscoScenario.node[0].veinsmobility  posy  ETV
vector 8  FranciscoScenario.node[0].veinsmobility  speed  ETV
vector 9  FranciscoScenario.node[0].veinsmobility  acceleration  ETV
vector 10  FranciscoScenario.node[0].veinsmobility  co2emission  ETV
vector 14  FranciscoScenario.node[1].veinsmobility  posx  ETV
vector 15  FranciscoScenario.node[1].veinsmobility  posy  ETV
vector 22  FranciscoScenario.node[2].veinsmobility  posx  ETV
vector 23  FranciscoScenario.node[2].veinsmobility  posy  ETV
vector 30  FranciscoScenario.node[3].veinsmobility  posx  ETV
vector 31  FranciscoScenario.node[3].veinsmobility  posy  ETV
vector 38  FranciscoScenario.node[4].veinsmobility  posx  ETV
vector 39  FranciscoScenario.node[4].veinsmobility  posy  ETV
vector 46  FranciscoScenario.node[5].veinsmobility  posx  ETV
vector 47  FranciscoScenario.node[5].veinsmobility  posy  ETV
vector 54  FranciscoScenario.node[6].veinsmobility  posx  ETV
vector 55  FranciscoScenario.node[6].veinsmobility  posy  ETV
vector 62  FranciscoScenario.node[7].veinsmobility  posx  ETV
vector 63  FranciscoScenario.node[7].veinsmobility  posy  ETV
vector 70  FranciscoScenario.node[8].veinsmobility  posx  ETV
vector 71  FranciscoScenario.node[8].veinsmobility  posy  ETV
vector 78  FranciscoScenario.node[9].veinsmobility  posx  ETV
vector 79  FranciscoScenario.node[9].veinsmobility  posy  ETV
vector 86  FranciscoScenario.node[10].veinsmobility  posx  ETV
vector 87  FranciscoScenario.node[10].veinsmobility  posy  ETV
vector 94  FranciscoScenario.node[11].veinsmobility  posx  ETV
vector 95  FranciscoScenario.node[11].veinsmobility  posy  ETV
vector 102  FranciscoScenario.node[12].veinsmobility  posx  ETV
vector 103  FranciscoScenario.node[12].veinsmobility  posy  ETV
vector 110  FranciscoScenario.node[13].veinsmobility  posx  ETV
vector 111  FranciscoScenario.node[13].veinsmobility  posy  ETV
vector 118  FranciscoScenario.node[14].veinsmobility  posx  ETV
vector 119  FranciscoScenario.node[14].veinsmobility  posy  ETV
vector 126  FranciscoScenario.node[15].veinsmobility  posx  ETV
vector 127  FranciscoScenario.node[15].veinsmobility  posy  ETV
vector 134  FranciscoScenario.node[16].veinsmobility  posx  ETV
vector 135  FranciscoScenario.node[16].veinsmobility  posy  ETV
vector 142  FranciscoScenario.node[17].veinsmobility  posx  ETV
vector 143  FranciscoScenario.node[17].veinsmobility  posy  ETV
vector 150  FranciscoScenario.node[18].veinsmobility  posx  ETV
vector 151  FranciscoScenario.node[18].veinsmobility  posy  ETV
vector 16  FranciscoScenario.node[1].veinsmobility  speed  ETV
vector 17  FranciscoScenario.node[1].veinsmobility  acceleration  ETV
vector 18  FranciscoScenario.node[1].veinsmobility  co2emission  ETV
vector 24  FranciscoScenario.node[2].veinsmobility  speed  ETV
vector 32  FranciscoScenario.node[3].veinsmobility  speed  ETV
vector 40  FranciscoScenario.node[4].veinsmobility  speed  ETV
vector 48  FranciscoScenario.node[5].veinsmobility  speed  ETV
vector 56  FranciscoScenario.node[6].veinsmobility  speed  ETV
vector 64  FranciscoScenario.node[7].veinsmobility  speed  ETV
vector 72  FranciscoScenario.node[8].veinsmobility  speed  ETV
vector 80  FranciscoScenario.node[9].veinsmobility  speed  ETV
vector 88  FranciscoScenario.node[10].veinsmobility  speed  ETV
vector 96  FranciscoScenario.node[11].veinsmobility  speed  ETV
vector 104  FranciscoScenario.node[12].veinsmobility  speed  ETV
vector 112  FranciscoScenario.node[13].veinsmobility  speed  ETV
vector 120  FranciscoScenario.node[14].veinsmobility  speed  ETV
vector 128  FranciscoScenario.node[15].veinsmobility  speed  ETV
vector 136  FranciscoScenario.node[16].veinsmobility  speed  ETV
vector 144  FranciscoScenario.node[17].veinsmobility  speed  ETV
vector 152  FranciscoScenario.node[18].veinsmobility  speed  ETV
vector 25  FranciscoScenario.node[2].veinsmobility  acceleration  ETV
vector 26  FranciscoScenario.node[2].veinsmobility  co2emission  ETV
vector 33  FranciscoScenario.node[3].veinsmobility  acceleration  ETV
vector 34  FranciscoScenario.node[3].veinsmobility  co2emission  ETV
vector 41  FranciscoScenario.node[4].veinsmobility  acceleration  ETV
vector 42  FranciscoScenario.node[4].veinsmobility  co2emission  ETV
vector 49  FranciscoScenario.node[5].veinsmobility  acceleration  ETV
vector 50  FranciscoScenario.node[5].veinsmobility  co2emission  ETV
vector 57  FranciscoScenario.node[6].veinsmobility  acceleration  ETV
vector 58  FranciscoScenario.node[6].veinsmobility  co2emission  ETV
vector 65  FranciscoScenario.node[7].veinsmobility  acceleration  ETV
vector 66  FranciscoScenario.node[7].veinsmobility  co2emission  ETV
vector 73  FranciscoScenario.node[8].veinsmobility  acceleration  ETV
vector 74  FranciscoScenario.node[8].veinsmobility  co2emission  ETV
vector 81  FranciscoScenario.node[9].veinsmobility  acceleration  ETV
vector 82  FranciscoScenario.node[9].veinsmobility  co2emission  ETV
vector 89  FranciscoScenario.node[10].veinsmobility  acceleration  ETV
vector 90  FranciscoScenario.node[10].veinsmobility  co2emission  ETV
vector 97  FranciscoScenario.node[11].veinsmobility  acceleration  ETV
vector 98  FranciscoScenario.node[11].veinsmobility  co2emission  ETV
vector 105  FranciscoScenario.node[12].veinsmobility  acceleration  ETV
vector 106  FranciscoScenario.node[12].veinsmobility  co2emission  ETV
vector 113  FranciscoScenario.node[13].veinsmobility  acceleration  ETV
vector 114  FranciscoScenario.node[13].veinsmobility  co2emission  ETV
vector 121  FranciscoScenario.node[14].veinsmobility  acceleration  ETV
vector 122  FranciscoScenario.node[14].veinsmobility  co2emission  ETV
vector 129  FranciscoScenario.node[15].veinsmobility  acceleration  ETV
vector 130  FranciscoScenario.node[15].veinsmobility  co2emission  ETV
vector 137  FranciscoScenario.node[16].veinsmobility  acceleration  ETV
vector 138  FranciscoScenario.node[16].veinsmobility  co2emission  ETV
vector 145  FranciscoScenario.node[17].veinsmobility  acceleration  ETV
vector 146  FranciscoScenario.node[17].veinsmobility  co2emission  ETV
vector 153  FranciscoScenario.node[18].veinsmobility  acceleration  ETV
vector 154  FranciscoScenario.node[18].veinsmobility  co2emission  ETV
vector 158  FranciscoScenario.node[19].veinsmobility  posx  ETV
vector 159  FranciscoScenario.node[19].veinsmobility  posy  ETV
vector 160  FranciscoScenario.node[19].veinsmobility  speed  ETV
vector 161  FranciscoScenario.node[19].veinsmobility  acceleration  ETV
vector 162  FranciscoScenario.node[19].veinsmobility  co2emission  ETV
vector 166  FranciscoScenario.node[20].veinsmobility  posx  ETV
vector 167  FranciscoScenario.node[20].veinsmobility  posy  ETV
vector 174  FranciscoScenario.node[21].veinsmobility  posx  ETV
vector 175  FranciscoScenario.node[21].veinsmobility  posy  ETV
vector 168  FranciscoScenario.node[20].veinsmobility  speed  ETV
vector 176  FranciscoScenario.node[21].veinsmobility  speed  ETV
vector 169  FranciscoScenario.node[20].veinsmobility  acceleration  ETV
vector 170  FranciscoScenario.node[20].veinsmobility  co2emission  ETV
vector 177  FranciscoScenario.node[21].veinsmobility  acceleration  ETV
vector 178  FranciscoScenario.node[21].veinsmobility  co2emission  ETV
vector 182  FranciscoScenario.node[22].veinsmobility  posx  ETV
vector 183  FranciscoScenario.node[22].veinsmobility  posy  ETV
vector 184  FranciscoScenario.node[22].veinsmobility  speed  ETV
vector 185  FranciscoScenario.node[22].veinsmobility  acceleration  ETV
vector 186  FranciscoScenario.node[22].veinsmobility  co2emission  ETV
vector 190  FranciscoScenario.node[23].veinsmobility  posx  ETV
vector 191  FranciscoScenario.node[23].veinsmobility  posy  ETV
vector 192  FranciscoScenario.node[23].veinsmobility  speed  ETV
vector 193  FranciscoScenario.node[23].veinsmobility  acceleration  ETV
vector 194  FranciscoScenario.node[23].veinsmobility  co2emission  ETV
vector 198  FranciscoScenario.node[24].veinsmobility  posx  ETV
vector 199  FranciscoScenario.node[24].veinsmobility  posy  ETV
vector 200  FranciscoScenario.node[24].veinsmobility  speed  ETV
vector 201  FranciscoScenario.node[24].veinsmobility  acceleration  ETV
vector 202  FranciscoScenario.node[24].veinsmobility  co2emission  ETV
vector 206  FranciscoScenario.node[25].veinsmobility  posx  ETV
vector 207  FranciscoScenario.node[25].veinsmobility  posy  ETV
vector 208  FranciscoScenario.node[25].veinsmobility  speed  ETV
vector 209  FranciscoScenario.node[25].veinsmobility  acceleration  ETV
vector 210  FranciscoScenario.node[25].veinsmobility  co2emission  ETV
vector 214  FranciscoScenario.node[26].veinsmobility  posx  ETV
vector 215  FranciscoScenario.node[26].veinsmobility  posy  ETV
vector 216  FranciscoScenario.node[26].veinsmobility  speed  ETV
vector 222  FranciscoScenario.node[27].veinsmobility  posx  ETV
vector 223  FranciscoScenario.node[27].veinsmobility  posy  ETV
vector 217  FranciscoScenario.node[26].veinsmobility  acceleration  ETV
vector 218  FranciscoScenario.node[26].veinsmobility  co2emission  ETV
vector 224  FranciscoScenario.node[27].veinsmobility  speed  ETV
vector 225  FranciscoScenario.node[27].veinsmobility  acceleration  ETV
vector 226  FranciscoScenario.node[27].veinsmobility  co2emission  ETV
vector 230  FranciscoScenario.node[28].veinsmobility  posx  ETV
vector 231  FranciscoScenario.node[28].veinsmobility  posy  ETV
vector 232  FranciscoScenario.node[28].veinsmobility  speed  ETV
vector 233  FranciscoScenario.node[28].veinsmobility  acceleration  ETV
vector 234  FranciscoScenario.node[28].veinsmobility  co2emission  ETV
vector 238  FranciscoScenario.node[29].veinsmobility  posx  ETV
vector 239  FranciscoScenario.node[29].veinsmobility  posy  ETV
vector 240  FranciscoScenario.node[29].veinsmobility  speed  ETV
vector 241  FranciscoScenario.node[29].veinsmobility  acceleration  ETV
vector 242  FranciscoScenario.node[29].veinsmobility  co2emission  ETV
vector 246  FranciscoScenario.node[30].veinsmobility  posx  ETV
vector 247  FranciscoScenario.node[30].veinsmobility  posy  ETV
vector 248  FranciscoScenario.node[30].veinsmobility  speed  ETV
vector 249  FranciscoScenario.node[30].veinsmobility  acceleration  ETV
vector 250  FranciscoScenario.node[30].veinsmobility  co2emission  ETV
vector 254  FranciscoScenario.node[31].veinsmobility  posx  ETV
vector 255  FranciscoScenario.node[31].veinsmobility  posy  ETV
vector 256  FranciscoScenario.node[31].veinsmobility  speed  ETV
vector 257  FranciscoScenario.node[31].veinsmobility  acceleration  ETV
vector 258  FranciscoScenario.node[31].veinsmobility  co2emission  ETV
vector 262  FranciscoScenario.node[32].veinsmobility  posx  ETV
vector 263  FranciscoScenario.node[32].veinsmobility  posy  ETV
vector 264  FranciscoScenario.node[32].veinsmobility  speed  ETV
vector 265  FranciscoScenario.node[32].veinsmobility  acceleration  ETV
vector 266  FranciscoScenario.node[32].veinsmobility  co2emission  ETV
vector 270  FranciscoScenario.node[33].veinsmobility  posx  ETV
vector 271  FranciscoScenario.node[33].veinsmobility  posy  ETV
vector 272  FranciscoScenario.node[33].veinsmobility  speed  ETV
vector 273  FranciscoScenario.node[33].veinsmobility  acceleration  ETV
vector 274  FranciscoScenario.node[33].veinsmobility  co2emission  ETV
vector 278  FranciscoScenario.node[34].veinsmobility  posx  ETV
vector 279  FranciscoScenario.node[34].veinsmobility  posy  ETV
vector 280  FranciscoScenario.node[34].veinsmobility  speed  ETV
vector 281  FranciscoScenario.node[34].veinsmobility  acceleration  ETV
vector 282  FranciscoScenario.node[34].veinsmobility  co2emission  ETV
vector 286  FranciscoScenario.node[35].veinsmobility  posx  ETV
vector 287  FranciscoScenario.node[35].veinsmobility  posy  ETV
vector 288  FranciscoScenario.node[35].veinsmobility  speed  ETV
vector 289  FranciscoScenario.node[35].veinsmobility  acceleration  ETV
vector 290  FranciscoScenario.node[35].veinsmobility  co2emission  ETV
vector 294  FranciscoScenario.node[36].veinsmobility  posx  ETV
vector 295  FranciscoScenario.node[36].veinsmobility  posy  ETV
vector 296  FranciscoScenario.node[36].veinsmobility  speed  ETV
vector 297  FranciscoScenario.node[36].veinsmobility  acceleration  ETV
vector 298  FranciscoScenario.node[36].veinsmobility  co2emission  ETV
vector 302  FranciscoScenario.node[37].veinsmobility  posx  ETV
vector 303  FranciscoScenario.node[37].veinsmobility  posy  ETV
vector 304  FranciscoScenario.node[37].veinsmobility  speed  ETV
vector 305  FranciscoScenario.node[37].veinsmobility  acceleration  ETV
vector 306  FranciscoScenario.node[37].veinsmobility  co2emission  ETV
vector 310  FranciscoScenario.node[38].veinsmobility  posx  ETV
vector 311  FranciscoScenario.node[38].veinsmobility  posy  ETV
vector 312  FranciscoScenario.node[38].veinsmobility  speed  ETV
vector 313  FranciscoScenario.node[38].veinsmobility  acceleration  ETV
vector 314  FranciscoScenario.node[38].veinsmobility  co2emission  ETV
vector 243  FranciscoScenario.node[30].appl  warningReceived:vector  ETV
attr description  "Warning Received"
vector 2  FranciscoScenario.stats  allMessagesReceivedSignal:vector  ETV
attr description  "All Messages Received"
vector 1  FranciscoScenario.stats  allWarningsReceivedSignal:vector  ETV
attr description  "All Warnings Received"
vector 299  FranciscoScenario.node[37].appl  warningReceived:vector  ETV
attr description  "Warning Received"
vector 35  FranciscoScenario.node[4].appl  warningReceived:vector  ETV
attr description  "Warning Received"
vector 123  FranciscoScenario.node[15].appl  warningReceived:vector  ETV
attr description  "Warning Received"
vector 171  FranciscoScenario.node[21].appl  warningReceived:vector  ETV
attr description  "Warning Received"
vector 59  FranciscoScenario.node[7].appl  warningReceived:vector  ETV
attr description  "Warning Received"
vector 251  FranciscoScenario.node[31].appl  warningReceived:vector  ETV
attr description  "Warning Received"
vector 147  FranciscoScenario.node[18].appl  warningReceived:vector  ETV
attr description  "Warning Received"
vector 163  FranciscoScenario.node[20].appl  warningReceived:vector  ETV
attr description  "Warning Received"
vector 227  FranciscoScenario.node[28].appl  warningReceived:vector  ETV
attr description  "Warning Received"
vector 155  FranciscoScenario.node[19].appl  warningReceived:vector  ETV
attr description  "Warning Received"
vector 187  FranciscoScenario.node[23].appl  warningReceived:vector  ETV
attr description  "Warning Received"
vector 115  FranciscoScenario.node[14].appl  warningReceived:vector  ETV
attr description  "Warning Received"
vector 203  FranciscoScenario.node[25].appl  warningReceived:vector  ETV
attr description  "Warning Received"
vector 83  FranciscoScenario.node[10].appl  warningReceived:vector  ETV
attr description  "Warning Received"
vector 91  FranciscoScenario.node[11].appl  warningReceived:vector  ETV
attr description  "Warning Received"
vector 27  FranciscoScenario.node[3].appl  warningReceived:vector  ETV
attr description  "Warning Received"
vector 3  FranciscoScenario.node[0].appl  warningReceived:vector  ETV
attr description  "Warning Received"
vector 211  FranciscoScenario.node[26].appl  warningReceived:vector  ETV
attr description  "Warning Received"
vector 75  FranciscoScenario.node[9].appl  warningReceived:vector  ETV
attr description  "Warning Received"
vector 195  FranciscoScenario.node[24].appl  warningReceived:vector  ETV
attr description  "Warning Received"
vector 179  FranciscoScenario.node[22].appl  warningReceived:vector  ETV
attr description  "Warning Received"
vector 283  FranciscoScenario.node[35].appl  warningReceived:vector  ETV
attr description  "Warning Received"
vector 235  FranciscoScenario.node[29].appl  warningReceived:vector  ETV
attr description  "Warning Received"
vector 43  FranciscoScenario.node[5].appl  warningReceived:vector  ETV
attr description  "Warning Received"
vector 139  FranciscoScenario.node[17].appl  warningReceived:vector  ETV
attr description  "Warning Received"
vector 107  FranciscoScenario.node[13].appl  warningReceived:vector  ETV
attr description  "Warning Received"
vector 291  FranciscoScenario.node[36].appl  warningReceived:vector  ETV
attr description  "Warning Received"
vector 51  FranciscoScenario.node[6].appl  warningReceived:vector  ETV
attr description  "Warning Received"
vector 275  FranciscoScenario.node[34].appl  warningReceived:vector  ETV
attr description  "Warning Received"
vector 19  FranciscoScenario.node[2].appl  warningReceived:vector  ETV
attr description  "Warning Received"
vector 131  FranciscoScenario.node[16].appl  warningReceived:vector  ETV
attr description  "Warning Received"
vector 219  FranciscoScenario.node[27].appl  warningReceived:vector  ETV
attr description  "Warning Received"
vector 11  FranciscoScenario.node[1].appl  warningReceived:vector  ETV
attr description  "Warning Received"
vector 99  FranciscoScenario.node[12].appl  warningReceived:vector  ETV
attr description  "Warning Received"
10	4	0.3	1.4276208928798
10	5	0.4	1.5553504369406
10	6	0.5	1.6547258140606
10	7	0.6	1.7983555805977
10	8	0.7	1.8323674505787
10	9	0.8	2.0110897446338
10	10	0.9	1.970451684244
10	11	1	2.244901373431
10	12	1.1	2.2119208452933
10	13	1.2	2.2548819012347
10	14	1.3	2.1003346609958
10	15	1.4	2.6295824611815
10	16	1.5	2.9732997811396
10	17	1.6	3.1191270811211
10	18	1.7	2.6785209205362
10	19	1.8	2.8010866611016
10	20	1.9	3.4327220833448
10	21	2	3.239537714786
10	22	2.1	3.0171880107526
10	23	2.2	3.1599942212969
10	24	2.3	3.7774756949343
10	25	2.4	4.1808379671823
10	26	2.5	4.1492730534794
10	27	2.6	4.5105267233075
10	28	2.7	3.1048882418588
10	29	2.8	4.011748783331
10	30	2.9	4.9836485633278
10	31	3	4.9130468331214
10	32	3.1	4.8649677707008
10	33	3.2	3.5257135925085
10	34	3.3	4.6785123334467
10	35	3.4	5.0748006596807
10	36	3.5	5.3651547055227
10	37	3.6	4.5121234693545
10	38	3.7	4.4181630060388
10	39	3.8	4.2869648926743
10	40	3.9	4.0842119116162
10	41	4	4.6121089466554
10	42	4.1	4.1533342992221
10	43	4.2	5.9328186501098
10	44	4.3	5.5972506064722
10	45	4.4	4.6819763784491
10	46	4.5	4.6475639573081
10	47	4.6	6.8159436779424
10	48	4.7	5.6939609358173
10	49	4.8	5.6652666326801
10	50	4.9	6.7181732553046
10	51	5	7.545523886154
10	52	5.1	4.8490924032277
10	53	5.2	5.8603355812422
10	54	5.3	8.0538841118892
10	55	5.4	7.1675666824522
10	56	5.5	5.6409943131668
10	57	5.6	6.4981428200032
10	58	5.7	7.3188312078651
10	59	5.8	0.973
10	60	5.9	2.781999923913
10	61	6	2.6477417802127
10	62	6.1	1.2042520775061
10	63	6.2	2.2184693651492
10	64	6.3	0.973
10	65	6.4	4.1687184052414
10	66	6.5	0.973
10	67	6.6	2.2123795264187
10	68	6.7	1.7949269855741
10	69	6.8	3.0933493029929
10	70	6.9	0.973
10	71	7	2.2248323238475
10	72	7.1	0.973
10	73	7.2	3.2857499419121
10	74	7.3	0.973
10	75	7.4	4.6233450105471
10	76	7.5	0.973
10	77	7.6	1.3227244363017
10	78	7.7	1.3009715227308
10	79	7.8	0.973
10	80	7.9	0.973
10	81	8	0.973
10	82	8.1	0.973
10	83	8.2	0.973
10	84	8.3	0.973
10	85	8.4	0.973
10	86	8.5	0.973
10	87	8.6	0.973
10	88	8.7	0.973
10	89	8.8	0.973
10	90	8.9	0.973
10	91	9	0.973
10	92	9.1	0.973
10	93	9.2	0.973
10	94	9.3	0.973
10	95	9.4	0.973
10	96	9.5	0.973
10	97	9.6	0.973
10	98	9.7	0.973
10	99	9.8	0.973
10	100	9.9	0.973
10	101	10	0.973
10	102	10.1	0.973
10	103	10.2	0.973
10	104	10.3	0.973
10	105	10.4	0.973
10	106	10.5	0.973
10	107	10.6	0.973
10	108	10.7	3.5268297397723
10	109	10.8	3.7032776976798
10	110	10.9	3.8798693518046
10	111	11	4.0566144440537
10	112	11.1	4.2335227163343
10	113	11.2	4.4106039105536
10	114	11.3	4.5878677686189
10	115	11.4	0.973
10	116	11.5	4.4583104208159
10	117	11.6	0.973
10	118	11.7	0.973
10	119	11.8	0.973
10	120	11.9	0.973
10	121	12	0.973
10	122	12.1	0.973
10	123	12.2	0.973
10	124	12.3	3.6800795561122
10	125	12.4	3.8566517685324
10	126	12.5	4.0333761387204
10	127	12.6	4.2102624085835
10	128	12.7	4.3873203200289
10	129	12.8	4.5645596149637
10	130	12.9	4.7419900352951
10	131	13	4.9196213229302
10	132	13.1	5.0974632197762
10	133	13.2	4.5439231296616
10	134	13.3	4.060125885866
10	135	13.4	4.2930084715727
10	136	13.5	4.3028398671476
10	137	13.6	4.0128410946451
10	138	13.7	3.7618167514012
10	139	13.8	3.7202171975258
10	140	13.9	5.052645794809
10	141	14	5.2117743712976
10	142	14.1	4.0019346757906
10	143	14.2	6.2526905522389
10	144	14.3	4.3364670016889
10	145	14.4	4.8615013225122
10	146	14.5	4.744866649098
10	147	14.6	5.4151565067415
10	148	14.7	4.6990110148273
10	149	14.8	4.7741255756833
10	150	14.9	6.9687477411007
10	151	15	6.2321843234518
10	152	15.1	7.2673631797352
10	153	15.2	4.9118756134888
10	154	15.3	5.4371409957957
10	155	15.4	4.9672757620213
10	156	15.5	6.3188266693258
10	157	15.6	6.3836760603473
10	158	15.7	5.5311837408209
10	159	15.8	6.9972443908848
10	160	15.9	6.4089773393657
10	161	16	5.9245419690123
10	162	16.1	6.8008044441946
10	163	16.2	7.6254071603918
10	164	16.3	5.9503499515495
10	165	16.4	8.3993959390318
10	166	16.5	5.640624326927
10	167	16.6	7.8914008933446
10	168	16.7	9.083666585816
10	169	16.8	6.6447984972404
10	170	16.9	7.8998098611711
10	171	17	9.2985561210441
10	172	17.1	8.3583836369268
10	173	17.2	7.1276852383408
10	174	17.3	7.8669229839606
10	175	17.4	6.3565293350492
10	176	17.5	9.4314243413369
10	177	17.6	2.2711281106655
10	178	17.7	0.973
10	179	17.8	4.525480756492
10	180	17.9	1.3904575137088
10	181	18	3.4582033655551
10	182	18.1	1.9739032487605
10	183	18.2	0.973
10	184	18.3	4.6199373409767
10	185	18.4	1.4608302602277
10	186	18.5	2.8653556196696
10	187	18.6	1.972397632277
10	188	18.7	0.973
10	189	18.8	0.973
10	190	18.9	1.6181056248428
10	191	19	5.0421842387834
10	192	19.1	2.6491052296581
10	193	19.2	1.1364267851116
10	194	19.3	3.2662740625541
9	4	0.3	2.4479752470855
9	5	0.4	2.3290637582572
9	6	0.5	2.1818481258762
9	7	0.6	2.2357036410334
9	8	0.7	1.9855717337837
9	9	0.8	2.1556800054752
9	10	0.9	1.8177961522857
9	11	1	2.1703654659723
9	12	1.1	1.8999668675033
9	13	1.2	1.8135391334582
9	14	1.3	1.4406950977165
9	15	1.4	2.121286001429
9	16	1.5	2.413640728849
9	17	1.6	2.4054226770764
9	18	1.7	1.7281707641901
9	19	1.8	1.7744234598242
9	20	1.9	2.3444429362891
9	21	2	2.0134930219268
9	22	2.1	1.699786244845
9	23	2.2	1.7586736198515
9	24	2.3	2.224980637827
9	25	2.4	2.4489375170553
9	26	2.5	2.3003070699284
9	27	2.6	2.4662776320474
9	28	2.7	1.3207450939575
9	29	2.8	1.9391899146372
9	30	2.9	2.5342354533728
9	31	3	2.3777174293995
9	32	3.1	2.2525587057928
9	33	3.2	1.3386923096376
9	34	3.3	2.0101941086352
9	35	3.4	2.1779121355852
9	36	3.5	2.2698758610059
9	37	3.6	1.7226984513691
9	38	3.7	1.6267372881295
9	39	3.8	1.5170504769077
9	40	3.9	1.376208983548
9	41	4	1.620359514025
9	42	4.1	1.3509149491321
9	43	4.2	2.2040433606366
9	44	4.3	1.9805796349421
9	45	4.4	1.4985420882702
9	46	4.5	1.4524779267609
9	47	4.6	2.4088819413679
9	48	4.7	1.8457437599311
9	49	4.8	1.7918179621454
9	50	4.9	2.2009181316942
9	51	5	2.487507763179
9	52	5.1	1.3238684157142
9	53	5.2	1.7113551488612
9	54	5.3	2.5401904957369
9	55	5.4	2.1344602823723
9	56	5.5	1.5090541429585
9	57	5.6	1.8047270571114
9	58	5.7	2.0712466557277
9	59	5.8	-0.56446468837958
9	60	5.9	0.37814223959577
9	61	6	0.32595529509708
9	62	6.1	-0.21220156589989
9	63	6.2	0.16605261559597
9	64	6.3	-0.47955770408734
9	65	6.4	0.88923538040836
9	66	6.5	-0.49799070577137
9	67	6.6	0.16343845732044
9	68	6.7	0.0077496692538226
9	69	6.8	0.48823843982536
9	70	6.9	-0.49154685756656
9	71	7	0.16729478610214
9	72	7.1	-0.57544951944147
9	73	7.2	0.56239807354286
9	74	7.3	-0.88030070809182
9	75	7.4	1.0582276374102
9	76	7.5	-0.36082593854516
9	77	7.6	-0.16800502554979
9	78	7.7	-0.17586776539684
9	79	7.8	-0.67997618363897
9	80	7.9	-2.6704099875163
9	81	8	-3.8190214427336
9	82	8.1	-2.8026855612268
9	83	8.2	-3.1580063100115
9	84	8.3	-2.5561421574338
9	85	8.4	-3.5425249194012
9	86	8.5	-3.5419810639855
9	87	8.6	-2.6664843982341
9	88	8.7	-3.2163792128117
9	89	8.8	-2.7517002335732
9	90	8.9	-2.6411500495274
9	91	9	-3.1632920545598
9	92	9.1	-3.2466043068459
9	93	9.2	-2.8117848952514
9	94	9.3	-2.8189335051429
9	95	9.4	-1.9859368200454
9	96	9.5	-2.9854342353692
9	97	9.6	-2.2879069686677
9	98	9.7	-3.1302461641523
9	99	9.8	-2.8978738608171
9	100	9.9	-1.2739759648495
9	101	10	-2.5355722229614
9	102	10.1	-2.8244679410338
9	103	10.2	-2.2371680633986
9	104	10.3	-2.4626446221737
9	105	10.4	-1.6817940245977
9	106	10.5	-2.1320493463758
9	107	10.6	-3.2347590879743
9	108	10.7	2.6
9	109	10.8	2.6
9	110	10.9	2.6
9	111	11	2.6
9	112	11.1	2.6
9	113	11.2	2.6
9	114	11.3	2.6
9	115	11.4	-4.5
9	116	11.5	2.6
9	117	11.6	-0.51111522578092
9	118	11.7	-2.4207817132761
9	119	11.8	-2.4447937651501
9	120	11.9	-2.9334666244349
9	121	12	-2.3212572926073
9	122	12.1	-2.3023107243837
9	123	12.2	-1.1079866775325
9	124	12.3	2.6
9	125	12.4	2.6
9	126	12.5	2.6
9	127	12.6	2.6
9	128	12.7	2.6
9	129	12.8	2.6
9	130	12.9	2.6
9	131	13	2.6
9	132	13.1	2.6
9	133	13.2	2.124009146844
9	134	13.3	1.7380200042157
9	135	13.4	1.8314777866704
9	136	13.5	1.7817004088545
9	137	13.6	1.5576393747702
9	138	13.7	1.3712530470686
9	139	13.8	1.316401664936
9	140	13.9	2.034153999947
9	141	14	2.0592606909806
9	142	14.1	1.3570314587792
9	143	14.2	2.4954169325996
9	144	14.3	1.4503785073292
9	145	14.4	1.6817741812207
9	146	14.5	1.5862303493079
9	147	14.6	1.8720815376379
9	148	14.7	1.4916078387992
9	149	14.8	1.4967570993118
9	150	14.9	2.4543808918679
9	151	15	2.0629247986944
9	152	15.1	2.4538915872108
9	153	15.2	1.4002114149975
9	154	15.3	1.594759327732
9	155	15.4	1.3722746456973
9	156	15.5	1.894382561231
9	157	15.6	1.8801041057566
9	158	15.7	1.5103718584171
9	159	15.8	2.0451346314745
9	160	15.9	1.7811275709188
9	161	16	1.5683238489088
9	162	16.1	1.8613890788052
9	163	16.2	2.1203313894803
9	164	16.3	1.4869600352366
9	165	16.4	2.3130298666656
9	166	16.5	1.3228195583448
9	167	16.6	2.0643682534108
9	168	16.7	2.4168078396004
9	169	16.8	1.5736002037767
9	170	16.9	1.9529960376211
9	171	17	2.358378559025
9	172	17.1	2.0195713379188
9	173	17.2	1.6068866273155
9	174	17.3	1.8071772997268
9	175	17.4	1.3257932476001
9	176	17.5	2.2189497783826
9	177	17.6	0.073833030974484
9	178	17.7	-0.90460179494693
9	179	17.8	0.75006585384253
9	180	17.9	-0.18925599739887
9	181	18	0.42870899008122
9	182	18.1	-0.015356352250091
9	183	18.2	-0.9723605528241
9	184	18.3	0.77811813545413
9	185	18.4	-0.16822749220301
9	186	18.5	0.25193685365377
9	187	18.6	-0.015438385144808
9	188	18.7	-0.39168865873945
9	189	18.8	-0.41236048601567
9	190	18.9	-0.11955348802731
9	191	19	0.90418043646496
9	192	19.1	0.18650971876923
9	193	19.2	-0.26571001480333
9	194	19.3	0.37053690231405
8	3	0.2	0.25286542447004
8	4	0.3	0.49766294917859
8	5	0.4	0.73056932500431
8	6	0.5	0.94875413759194
8	7	0.6	1.1723245016953
8	8	0.7	1.3708816750736
8	9	0.8	1.5864496756212
8	10	0.9	1.7682292908497
8	11	1	1.985265837447
8	12	1.1	2.1752625241973
8	13	1.2	2.3566164375431
8	14	1.3	2.5006859473148
8	15	1.4	2.7128145474577
8	16	1.5	2.9541786203426
8	17	1.6	3.1947208880502
8	18	1.7	3.3675379644692
8	19	1.8	3.5449803104516
8	20	1.9	3.7794246040806
8	21	2	3.9807739062732
8	22	2.1	4.1507525307577
8	23	2.2	4.3266198927429
8	24	2.3	4.5491179565256
8	25	2.4	4.7940117082311
8	26	2.5	5.024042415224
8	27	2.6	5.2706701784287
8	28	2.7	5.4027446878244
8	29	2.8	5.5966636792882
8	30	2.9	5.8500872246255
8	31	3	6.0878589675654
8	32	3.1	6.3131148381447
8	33	3.2	6.4469840691084
8	34	3.3	6.6480034799719
8	35	3.4	6.8657946935305
8	36	3.5	7.0927822796311
8	37	3.6	7.265052124768
8	38	3.7	7.4277258535809
8	39	3.8	7.5794309012717
8	40	3.9	7.7170517996265
8	41	4	7.879087751029
8	42	4.1	8.0141792459422
8	43	4.2	8.2345835820059
8	44	4.3	8.4326415455001
8	45	4.4	8.5824957543271
8	46	4.5	8.7277435470032
8	47	4.6	8.96863174114
8	48	4.7	9.1532061171331
8	49	4.8	9.3323879133476
8	50	4.9	9.552479726517
8	51	5	9.8012305028349
8	52	5.1	9.9336173444064
8	53	5.2	10.104752859292
8	54	5.3	10.358771908866
8	55	5.4	10.572217937103
8	56	5.5	10.723123351399
8	57	5.6	10.90359605711
8	58	5.7	11.110720722683
8	59	5.8	11.054274253845
8	60	5.9	11.092088477805
8	61	6	11.124684007314
8	62	6.1	11.103463850725
8	63	6.2	11.120069112284
8	64	6.3	11.072113341875
8	65	6.4	11.161036879916
8	66	6.5	11.111237809339
8	67	6.6	11.127581655071
8	68	6.7	11.128356621996
8	69	6.8	11.177180465979
8	70	6.9	11.128025780222
8	71	7	11.144755258833
8	72	7.1	11.087210306888
8	73	7.2	11.143450114243
8	74	7.3	11.055420043434
8	75	7.4	11.161242807175
8	76	7.5	11.12516021332
8	77	7.6	11.108359710765
8	78	7.7	11.090772934225
8	79	7.8	11.022775315861
8	80	7.9	10.75573431711
8	81	8	10.373832172836
8	82	8.1	10.093563616714
8	83	8.2	9.7777629857127
8	84	8.3	9.5221487699693
8	85	8.4	9.1678962780292
8	86	8.5	8.8136981716306
8	87	8.6	8.5470497318072
8	88	8.7	8.225411810526
8	89	8.8	7.9502417871687
8	90	8.9	7.686126782216
8	91	9	7.36979757676
8	92	9.1	7.0451371460754
8	93	9.2	6.7639586565502
8	94	9.3	6.482065306036
8	95	9.4	6.2834716240314
8	96	9.5	5.9849282004945
8	97	9.6	5.7561375036277
8	98	9.7	5.4431128872125
8	99	9.8	5.1533255011308
8	100	9.9	5.0259279046458
8	101	10	4.7723706823497
8	102	10.1	4.4899238882463
8	103	10.2	4.2662070819065
8	104	10.3	4.0199426196891
8	105	10.4	3.8517632172293
8	106	10.5	3.6385582825917
8	107	10.6	3.3150823737943
8	108	10.7	3.5750823737943
8	109	10.8	3.8350823737943
8	110	10.9	4.0950823737943
8	111	11	4.3550823737943
8	112	11.1	4.6150823737943
8	113	11.2	4.8750823737943
8	114	11.3	5.1350823737943
8	115	11.4	4.6850823737943
8	116	11.5	4.9450823737943
8	117	11.6	4.8939708512162
8	118	11.7	4.6518926798886
8	119	11.8	4.4074133033736
8	120	11.9	4.1140666409301
8	121	12	3.8819409116694
8	122	12.1	3.651709839231
8	123	12.2	3.5409111714778
8	124	12.3	3.8009111714778
8	125	12.4	4.0609111714778
8	126	12.5	4.3209111714778
8	127	12.6	4.5809111714778